ITEM: TIMESTEP
0
ITEM: NUMBER OF ATOMS
21
ITEM: BOX BOUNDS pp pp pp
3.5000000000000000e+01 4.8000000000000000e+01
3.5000000000000000e+01 4.8000000000000000e+01
3.5000000000000000e+01 4.8000000000000000e+01
ITEM: ATOMS id type xs ys zs
1 1 0.326273 0.497587 0.301752
6 4 0.402938 0.421947 0.256202
7 4 0.249552 0.438506 0.470874
9 4 0.358465 0.318887 0.230973
10 3 0.168729 0.418272 0.425168
14 3 0.416957 0.24617 0.213023
15 3 0.265737 0.311781 0.211421
16 2 0.246632 0.485013 0.271848
4 4 0.508428 0.424391 0.421033
5 1 0.509443 0.417821 0.304289
8 4 0.51306 0.322397 0.474066
13 3 0.55398 0.248855 0.429933
20 2 0.551742 0.487496 0.276177
21 2 0.555252 0.350778 0.275974
2 4 0.329203 0.502938 0.418526
3 1 0.434247 0.500477 0.46983
17 2 0.348953 0.575679 0.273088
18 2 0.468702 0.578757 0.458916
11 3 0.257617 0.421187 0.563967
12 3 0.491964 0.317086 0.566575
19 2 0.428521 0.490112 0.555005
ITEM: TIMESTEP
10
ITEM: NUMBER OF ATOMS
21
ITEM: BOX BOUNDS pp pp pp
3.5000000000000000e+01 4.8000000000000000e+01
3.5000000000000000e+01 4.8000000000000000e+01
3.5000000000000000e+01 4.8000000000000000e+01
ITEM: ATOMS id type xs ys zs
1 1 0.325943 0.497015 0.301889
6 4 0.406301 0.429532 0.250799
7 4 0.247037 0.436026 0.472523
9 4 0.356926 0.315339 0.230474
10 3 0.164034 0.41688 0.421838
14 3 0.420898 0.241805 0.212403
15 3 0.259863 0.311683 0.2107
16 2 0.245706 0.482608 0.272617
4 4 0.514723 0.431967 0.420108
5 1 0.509252 0.41722 0.304437
8 4 0.512911 0.318889 0.475747
13 3 0.556205 0.244439 0.426702
20 2 0.554886 0.48384 0.274286
21 2 0.554165 0.34853 0.276761
2 4 0.330586 0.512682 0.417451
3 1 0.434011 0.499925 0.470063
17 2 0.344241 0.575425 0.271094
18 2 0.468582 0.578655 0.464074
11 3 0.25869 0.419983 0.569647
12 3 0.49018 0.317102 0.572197
19 2 0.427455 0.487738 0.555561
ITEM: TIMESTEP
20
ITEM: NUMBER OF ATOMS
21
ITEM: BOX BOUNDS pp pp pp
3.5000000000000000e+01 4.8000000000000000e+01
3.5000000000000000e+01 4.8000000000000000e+01
3.5000000000000000e+01 4.8000000000000000e+01
ITEM: ATOMS id type xs ys zs
1 1 0.333971 0.496393 0.305843
6 4 0.405843 0.428382 0.250721
7 4 0.249497 0.439096 0.470863
9 4 0.358629 0.319261 0.2305
10 3 0.161523 0.416078 0.421026
14 3 0.42206 0.239397 0.211758
15 3 0.257316 0.310914 0.21003
16 2 0.255347 0.473212 0.281679
4 4 0.514496 0.430709 0.420641
5 1 0.503252 0.422704 0.308238
8 4 0.51368 0.32283 0.474121
13 3 0.55728 0.242039 0.425954
20 2 0.560051 0.475833 0.27121
21 2 0.540547 0.34929 0.285425
2 4 0.329833 0.511817 0.417976
3 1 0.433759 0.499049 0.461124
17 2 0.334802 0.573637 0.267707
18 2 0.467835 0.577109 0.473947
11 3 0.258353 0.419244 0.572255
12 3 0.489772 0.316394 0.574788
19 2 0.423361 0.478043 0.543292
ITEM: TIMESTEP
30
ITEM: NUMBER OF ATOMS
21
ITEM: BOX BOUNDS pp pp pp
3.5000000000000000e+01 4.8000000000000000e+01
3.5000000000000000e+01 4.8000000000000000e+01
3.5000000000000000e+01 4.8000000000000000e+01
ITEM: ATOMS id type xs ys zs
1 1 0.326645 0.496224 0.302579
6 4 0.406592 0.43018 0.25342
7 4 0.251245 0.440878 0.469681
9 4 0.35976 0.321852 0.230781
10 3 0.161246 0.415841 0.422552
14 3 0.420588 0.238972 0.211204
15 3 0.258033 0.309606 0.209525
16 2 0.248448 0.469261 0.280484
4 4 0.512289 0.432949 0.418522
5 1 0.508212 0.417117 0.305117
8 4 0.513952 0.325071 0.473118
13 3 0.557249 0.241484 0.427423
20 2 0.556234 0.481513 0.273527
21 2 0.542712 0.341624 0.284142
2 4 0.332647 0.511424 0.416137
3 1 0.433616 0.49904 0.469227
17 2 0.341261 0.574846 0.269984
18 2 0.468317 0.578023 0.466757
11 3 0.256784 0.418937 0.571845
12 3 0.490548 0.315032 0.574614
19 2 0.421707 0.474578 0.550397
ITEM: TIMESTEP
40
ITEM: NUMBER OF ATOMS
21
ITEM: BOX BOUNDS pp pp pp
3.5000000000000000e+01 4.8000000000000000e+01
3.5000000000000000e+01 4.8000000000000000e+01
3.5000000000000000e+01 4.8000000000000000e+01
ITEM: ATOMS id type xs ys zs
1 1 0.325104 0.493813 0.303131
6 4 0.404687 0.42619 0.25489
7 4 0.251672 0.442337 0.46933
9 4 0.360399 0.323308 0.230161
10 3 0.162741 0.417257 0.42209
14 3 0.420945 0.241054 0.211425
15 3 0.259297 0.31134 0.20978
16 2 0.246715 0.488561 0.270098
4 4 0.510178 0.430269 0.418868
5 1 0.507532 0.414733 0.305663
8 4 0.514689 0.325156 0.473404
13 3 0.557303 0.243267 0.427211
20 2 0.56143 0.472356 0.269454
21 2 0.558214 0.35348 0.27467
2 4 0.331118 0.507217 0.417008
3 1 0.43266 0.496937 0.470135
17 2 0.331242 0.572261 0.266601
18 2 0.466709 0.576446 0.47788
11 3 0.257722 0.420313 0.570563
12 3 0.491083 0.316381 0.573538
19 2 0.430466 0.493697 0.555421
ITEM: TIMESTEP
50
ITEM: NUMBER OF ATOMS
21
ITEM: BOX BOUNDS pp pp pp
3.5000000000000000e+01 4.8000000000000000e+01
3.5000000000000000e+01 4.8000000000000000e+01
3.5000000000000000e+01 4.8000000000000000e+01
ITEM: ATOMS id type xs ys zs
1 1 0.328032 0.494124 0.304756
6 4 0.407084 0.431909 0.254604
7 4 0.242632 0.436379 0.475149
9 4 0.355412 0.311795 0.226241
10 3 0.162973 0.418921 0.419308
14 3 0.423937 0.242342 0.211618
15 3 0.258168 0.314341 0.209928
16 2 0.248244 0.471143 0.28001
4 4 0.512888 0.43207 0.419135
5 1 0.505162 0.417605 0.305608
8 4 0.515838 0.31664 0.478194
13 3 0.558523 0.244142 0.424928
20 2 0.551039 0.486436 0.275711
21 2 0.542981 0.342807 0.283276
2 4 0.334052 0.511146 0.414826
3 1 0.431431 0.498211 0.466509
17 2 0.34861 0.573901 0.274417
18 2 0.466954 0.578323 0.459088
11 3 0.260311 0.422076 0.571358
12 3 0.490907 0.318937 0.574576
19 2 0.421211 0.476096 0.549656
ITEM: TIMESTEP
60
ITEM: NUMBER OF ATOMS
21
ITEM: BOX BOUNDS pp pp pp
3.5000000000000000e+01 4.8000000000000000e+01
3.5000000000000000e+01 4.8000000000000000e+01
3.5000000000000000e+01 4.8000000000000000e+01
ITEM: ATOMS id type xs ys zs
1 1 0.329566 0.498246 0.30333
6 4 0.406544 0.430052 0.246821
7 4 0.243847 0.436847 0.474309
9 4 0.356064 0.313254 0.226985
10 3 0.161745 0.418336 0.4243
14 3 0.419225 0.240997 0.209416
15 3 0.260386 0.309846 0.207778
16 2 0.249455 0.475628 0.276489
4 4 0.518801 0.431704 0.422287
5 1 0.507268 0.420537 0.305149
8 4 0.515484 0.315966 0.478379
13 3 0.558271 0.243973 0.430089
20 2 0.56154 0.480752 0.271132
21 2 0.546524 0.346474 0.279233
2 4 0.328493 0.515118 0.418626
3 1 0.433565 0.500871 0.4662
17 2 0.335126 0.578445 0.267076
18 2 0.469022 0.581392 0.470552
11 3 0.255284 0.421416 0.570232
12 3 0.494002 0.315233 0.572603
19 2 0.423948 0.482631 0.551252
ITEM: TIMESTEP
70
ITEM: NUMBER OF ATOMS
21
ITEM: BOX BOUNDS pp pp pp
3.5000000000000000e+01 4.8000000000000000e+01
3.5000000000000000e+01 4.8000000000000000e+01
3.5000000000000000e+01 4.8000000000000000e+01
ITEM: ATOMS id type xs ys zs
1 1 0.330929 0.498496 0.303537
6 4 0.406239 0.427711 0.254034
7 4 0.249267 0.441715 0.470618
9 4 0.359686 0.321632 0.22872
10 3 0.162198 0.418052 0.431076
14 3 0.412661 0.240714 0.207218
15 3 0.264779 0.30485 0.205716
16 2 0.250073 0.486149 0.274592
4 4 0.511449 0.428431 0.420244
5 1 0.506681 0.420365 0.30493
8 4 0.515177 0.325256 0.473611
13 3 0.558075 0.243539 0.43568
20 2 0.561854 0.475506 0.2656
21 2 0.554416 0.353768 0.276698
2 4 0.331878 0.508977 0.416854
3 1 0.433515 0.500803 0.466509
17 2 0.329253 0.576617 0.264695
18 2 0.465291 0.581811 0.476468
11 3 0.249226 0.420861 0.566955
12 3 0.497328 0.311021 0.570789
19 2 0.427815 0.492456 0.552472
ITEM: TIMESTEP
80
ITEM: NUMBER OF ATOMS
21
ITEM: BOX BOUNDS pp pp pp
3.5000000000000000e+01 4.8000000000000000e+01
3.5000000000000000e+01 4.8000000000000000e+01
3.5000000000000000e+01 4.8000000000000000e+01
ITEM: ATOMS id type xs ys zs
1 1 0.325893 0.498572 0.301212
6 4 0.408233 0.433409 0.255387
7 4 0.242228 0.437676 0.475207
9 4 0.355899 0.312873 0.225538
10 3 0.15921 0.419453 0.424147
14 3 0.421123 0.238753 0.207042
15 3 0.25778 0.309988 0.205484
16 2 0.245591 0.472614 0.277259
4 4 0.511156 0.436261 0.416282
5 1 0.511231 0.41657 0.301783
8 4 0.516367 0.316391 0.47867
13 3 0.561521 0.241411 0.428742
20 2 0.549481 0.489374 0.27636
21 2 0.548378 0.339678 0.279365
2 4 0.335839 0.511995 0.414582
3 1 0.43293 0.502068 0.472636
17 2 0.353848 0.575255 0.274349
18 2 0.468752 0.578995 0.455789
11 3 0.253934 0.422311 0.572497
12 3 0.495027 0.315484 0.577062
19 2 0.421894 0.477931 0.556622
ITEM: TIMESTEP
90
ITEM: NUMBER OF ATOMS
21
ITEM: BOX BOUNDS pp pp pp
3.5000000000000000e+01 4.8000000000000000e+01
3.5000000000000000e+01 4.8000000000000000e+01
3.5000000000000000e+01 4.8000000000000000e+01
ITEM: ATOMS id type xs ys zs
1 1 0.33628 0.494228 0.307017
6 4 0.401381 0.419402 0.25062
7 4 0.246559 0.442209 0.472464
9 4 0.358205 0.31797 0.22618
10 3 0.16003 0.421758 0.421625
14 3 0.422745 0.241449 0.206913
15 3 0.258554 0.31334 0.205408
16 2 0.257876 0.491614 0.272044
4 4 0.512349 0.424226 0.423356
5 1 0.501985 0.424312 0.309745
8 4 0.517005 0.320341 0.477004
13 3 0.561717 0.244673 0.428465
20 2 0.563546 0.468421 0.269875
21 2 0.550887 0.360189 0.277888
2 4 0.323036 0.504752 0.421762
3 1 0.434626 0.497954 0.458782
17 2 0.335626 0.571423 0.270427
18 2 0.465479 0.574638 0.482304
11 3 0.25605 0.424367 0.572726
12 3 0.496177 0.317962 0.575045
19 2 0.430173 0.493432 0.544856
ITEM: TIMESTEP
100
ITEM: NUMBER OF ATOMS
21
ITEM: BOX BOUNDS pp pp pp
3.5000000000000000e+01 4.8000000000000000e+01
3.5000000000000000e+01 4.8000000000000000e+01
3.5000000000000000e+01 4.8000000000000000e+01
ITEM: ATOMS id type xs ys zs
1 1 0.322954 0.493361 0.303897
6 4 0.407264 0.429955 0.253501
7 4 0.243483 0.438366 0.474227
9 4 0.356073 0.313191 0.226751
10 3 0.161109 0.422127 0.424446
14 3 0.419679 0.242749 0.206149
15 3 0.261262 0.311754 0.204619
16 2 0.241234 0.476488 0.273948
4 4 0.513583 0.431242 0.419227
5 1 0.507559 0.413724 0.305453
8 4 0.516003 0.317822 0.477655
13 3 0.56167 0.245529 0.430569
20 2 0.547849 0.487971 0.280389
21 2 0.548489 0.338286 0.284454
2 4 0.333338 0.511349 0.415517
3 1 0.430182 0.497203 0.470997
17 2 0.358815 0.568349 0.278835
18 2 0.469753 0.574424 0.45565
11 3 0.253873 0.424658 0.57026
12 3 0.497887 0.317058 0.573767
19 2 0.423691 0.47347 0.555425
