LAMMPS (10 Sep 2025 - Development - patch_10Sep2025-660-gac55f58ffb-modified)
Running on 2 partitions of processors
 GEMC run progress:   1% 
  Trans: 894/1012
  Vol: 262/1001
  Ex: 26/987
  Replica Volume Nparticles Density:
   1: 81.4424 4 0.0491145
   2: 178.558 108 0.604847
   Total: 260 112 0.430769
 GEMC run progress:   2% 
  Trans: 871/1013
  Vol: 172/986
  Ex: 10/1001
  Replica Volume Nparticles Density:
   1: 91.8723 4 0.0435387
   2: 168.128 108 0.642369
   Total: 260 112 0.430769
 GEMC run progress:   3% 
  Trans: 857/1025
  Vol: 158/1007
  Ex: 12/968
  Replica Volume Nparticles Density:
   1: 93.7928 6 0.0639708
   2: 166.207 106 0.637758
   Total: 260 112 0.430769
 GEMC run progress:   4% 
  Trans: 733/986
  Vol: 149/961
  Ex: 15/1053
  Replica Volume Nparticles Density:
   1: 94.5175 5 0.0529003
   2: 165.483 107 0.646594
   Total: 260 112 0.430769
 GEMC run progress:   5% 
  Trans: 745/1011
  Vol: 141/947
  Ex: 12/1042
  Replica Volume Nparticles Density:
   1: 92.7378 7 0.0754816
   2: 167.262 105 0.627757
   Total: 260 112 0.430769
 GEMC run progress:   6% 
  Trans: 672/956
  Vol: 158/1072
  Ex: 17/972
  Replica Volume Nparticles Density:
   1: 98.6733 8 0.0810757
   2: 161.327 104 0.644654
   Total: 260 112 0.430769
 GEMC run progress:   7% 
  Trans: 801/1021
  Vol: 134/987
  Ex: 5/992
  Replica Volume Nparticles Density:
   1: 106.619 9 0.0844128
   2: 153.381 103 0.67153
   Total: 260 112 0.430769
 GEMC run progress:   8% 
  Trans: 758/1032
  Vol: 145/1003
  Ex: 9/965
  Replica Volume Nparticles Density:
   1: 106 10 0.0943397
   2: 154 102 0.662337
   Total: 260 112 0.430769
 GEMC run progress:   9% 
  Trans: 713/970
  Vol: 136/998
  Ex: 12/1032
  Replica Volume Nparticles Density:
   1: 105.97 8 0.0754927
   2: 154.03 104 0.675195
   Total: 260 112 0.430769
 GEMC run progress:  10% 
  Trans: 916/1051
  Vol: 112/940
  Ex: 14/1009
  Replica Volume Nparticles Density:
   1: 108.174 4 0.0369776
   2: 151.826 108 0.711338
   Total: 260 112 0.430769
 GEMC run progress:  11% 
  Trans: 836/981
  Vol: 141/983
  Ex: 9/1036
  Replica Volume Nparticles Density:
   1: 97.4531 3 0.030784
   2: 162.547 109 0.670576
   Total: 260 112 0.430769
 GEMC run progress:  12% 
  Trans: 863/1006
  Vol: 158/986
  Ex: 6/1008
  Replica Volume Nparticles Density:
   1: 98.2381 3 0.0305381
   2: 161.762 109 0.67383
   Total: 260 112 0.430769
 GEMC run progress:  13% 
  Trans: 919/979
  Vol: 149/999
  Ex: 6/1022
  Replica Volume Nparticles Density:
   1: 92.4083 3 0.0324646
   2: 167.592 109 0.65039
   Total: 260 112 0.430769
 GEMC run progress:  14% 
  Trans: 868/967
  Vol: 146/981
  Ex: 11/1052
  Replica Volume Nparticles Density:
   1: 91.742 2 0.0218003
   2: 168.258 110 0.653758
   Total: 260 112 0.430769
 GEMC run progress:  15% 
  Trans: 842/991
  Vol: 152/979
  Ex: 15/1030
  Replica Volume Nparticles Density:
   1: 95.6443 5 0.052277
   2: 164.356 107 0.651027
   Total: 260 112 0.430769
 GEMC run progress:  16% 
  Trans: 949/1024
  Vol: 157/1007
  Ex: 11/969
  Replica Volume Nparticles Density:
   1: 96.6728 2 0.0206883
   2: 163.327 110 0.673495
   Total: 260 112 0.430769
 GEMC run progress:  17% 
  Trans: 897/1007
  Vol: 145/991
  Ex: 11/1002
  Replica Volume Nparticles Density:
   1: 101.955 7 0.0686575
   2: 158.045 105 0.664369
   Total: 260 112 0.430769
 GEMC run progress:  18% 
  Trans: 849/989
  Vol: 140/961
  Ex: 19/1050
  Replica Volume Nparticles Density:
   1: 100.53 2 0.0198945
   2: 159.47 110 0.689786
   Total: 260 112 0.430769
 GEMC run progress:  19% 
  Trans: 976/1053
  Vol: 136/949
  Ex: 18/998
  Replica Volume Nparticles Density:
   1: 96.3383 4 0.0415204
   2: 163.662 108 0.659898
   Total: 260 112 0.430769
 GEMC run progress:  20% 
  Trans: 951/1026
  Vol: 141/973
  Ex: 15/1001
  Replica Volume Nparticles Density:
   1: 98.1624 1 0.0101872
   2: 161.838 111 0.685873
   Total: 260 112 0.430769
 GEMC run progress:  21% 
  Trans: 818/978
  Vol: 147/1021
  Ex: 12/1001
  Replica Volume Nparticles Density:
   1: 100.855 5 0.0495759
   2: 159.145 107 0.672345
   Total: 260 112 0.430769
 GEMC run progress:  22% 
  Trans: 873/1021
  Vol: 152/978
  Ex: 9/1001
  Replica Volume Nparticles Density:
   1: 98.8571 2 0.0202312
   2: 161.143 110 0.682624
   Total: 260 112 0.430769
 GEMC run progress:  23% 
  Trans: 973/1024
  Vol: 170/972
  Ex: 11/1004
  Replica Volume Nparticles Density:
   1: 90.9512 1 0.0109949
   2: 169.049 111 0.656615
   Total: 260 112 0.430769
 GEMC run progress:  24% 
  Trans: 982/1000
  Vol: 154/975
  Ex: 4/1025
  Replica Volume Nparticles Density:
   1: 97.8523 1 0.0102195
   2: 162.148 111 0.684561
   Total: 260 112 0.430769
 GEMC run progress:  25% 
  Trans: 989/990
  Vol: 147/965
  Ex: 13/1045
  Replica Volume Nparticles Density:
   1: 94.1353 2 0.021246
   2: 165.865 110 0.663191
   Total: 260 112 0.430769
 GEMC run progress:  26% 
  Trans: 876/993
  Vol: 146/990
  Ex: 13/1017
  Replica Volume Nparticles Density:
   1: 93.4444 7 0.0749109
   2: 166.556 105 0.63042
   Total: 260 112 0.430769
 GEMC run progress:  27% 
  Trans: 850/1025
  Vol: 147/953
  Ex: 14/1022
  Replica Volume Nparticles Density:
   1: 101.11 9 0.0890122
   2: 158.89 103 0.648246
   Total: 260 112 0.430769
 GEMC run progress:  28% 
  Trans: 691/980
  Vol: 171/1033
  Ex: 14/987
  Replica Volume Nparticles Density:
   1: 100.224 11 0.109754
   2: 159.776 101 0.632137
   Total: 260 112 0.430769
 GEMC run progress:  29% 
  Trans: 739/1014
  Vol: 167/1025
  Ex: 13/991
  Replica Volume Nparticles Density:
   1: 91.608 4 0.0436643
   2: 168.392 108 0.641361
   Total: 260 112 0.430769
 GEMC run progress:  30% 
  Trans: 758/930
  Vol: 175/986
  Ex: 11/1054
  Replica Volume Nparticles Density:
   1: 92.8861 7 0.0753611
   2: 167.114 105 0.628314
   Total: 260 112 0.430769
 GEMC run progress:  31% 
  Trans: 970/1054
  Vol: 158/1006
  Ex: 22/940
  Replica Volume Nparticles Density:
   1: 85.022 1 0.0117617
   2: 174.978 111 0.634365
   Total: 260 112 0.430769
 GEMC run progress:  32% 
  Trans: 857/938
  Vol: 181/1030
  Ex: 13/1032
  Replica Volume Nparticles Density:
   1: 92.6162 4 0.043189
   2: 167.384 108 0.645224
   Total: 260 112 0.430769
 GEMC run progress:  33% 
  Trans: 900/989
  Vol: 144/1014
  Ex: 12/997
  Replica Volume Nparticles Density:
   1: 89.7321 2 0.0222886
   2: 170.268 110 0.646041
   Total: 260 112 0.430769
 GEMC run progress:  34% 
  Trans: 806/965
  Vol: 173/1028
  Ex: 13/1007
  Replica Volume Nparticles Density:
   1: 96.6691 5 0.0517228
   2: 163.331 107 0.655112
   Total: 260 112 0.430769
 GEMC run progress:  35% 
  Trans: 749/1013
  Vol: 143/968
  Ex: 8/1019
  Replica Volume Nparticles Density:
   1: 105.998 7 0.0660391
   2: 154.002 105 0.681809
   Total: 260 112 0.430769
 GEMC run progress:  36% 
  Trans: 725/1019
  Vol: 135/959
  Ex: 9/1022
  Replica Volume Nparticles Density:
   1: 104.072 10 0.0960871
   2: 155.928 102 0.654149
   Total: 260 112 0.430769
 GEMC run progress:  37% 
  Trans: 657/1034
  Vol: 137/953
  Ex: 12/1013
  Replica Volume Nparticles Density:
   1: 108.678 16 0.147224
   2: 151.322 96 0.634409
   Total: 260 112 0.430769
 GEMC run progress:  38% 
  Trans: 580/971
  Vol: 142/1007
  Ex: 14/1022
  Replica Volume Nparticles Density:
   1: 113.148 12 0.106056
   2: 146.852 100 0.680957
   Total: 260 112 0.430769
 GEMC run progress:  39% 
  Trans: 673/990
  Vol: 122/1000
  Ex: 5/1010
  Replica Volume Nparticles Density:
   1: 112.358 11 0.0979016
   2: 147.642 101 0.684086
   Total: 260 112 0.430769
 GEMC run progress:  40% 
  Trans: 728/1012
  Vol: 105/964
  Ex: 13/1024
  Replica Volume Nparticles Density:
   1: 105.193 10 0.0950638
   2: 154.807 102 0.658883
   Total: 260 112 0.430769
 GEMC run progress:  41% 
  Trans: 784/1015
  Vol: 170/1011
  Ex: 20/974
  Replica Volume Nparticles Density:
   1: 96.6668 6 0.0620689
   2: 163.333 106 0.64898
   Total: 260 112 0.430769
 GEMC run progress:  42% 
  Trans: 809/974
  Vol: 173/1007
  Ex: 12/1019
  Replica Volume Nparticles Density:
   1: 99.2297 8 0.080621
   2: 160.77 104 0.646886
   Total: 260 112 0.430769
 GEMC run progress:  43% 
  Trans: 805/1013
  Vol: 162/1002
  Ex: 11/985
  Replica Volume Nparticles Density:
   1: 90.5421 3 0.0331338
   2: 169.458 109 0.643227
   Total: 260 112 0.430769
 GEMC run progress:  44% 
  Trans: 845/1010
  Vol: 143/968
  Ex: 13/1022
  Replica Volume Nparticles Density:
   1: 107.91 4 0.037068
   2: 152.09 108 0.710104
   Total: 260 112 0.430769
 GEMC run progress:  45% 
  Trans: 758/1006
  Vol: 135/1011
  Ex: 12/983
  Replica Volume Nparticles Density:
   1: 101.943 4 0.0392377
   2: 158.057 108 0.683296
   Total: 260 112 0.430769
 GEMC run progress:  46% 
  Trans: 848/1009
  Vol: 152/978
  Ex: 11/1013
  Replica Volume Nparticles Density:
   1: 100.658 5 0.0496733
   2: 159.342 107 0.67151
   Total: 260 112 0.430769
 GEMC run progress:  47% 
  Trans: 770/940
  Vol: 162/1042
  Ex: 10/1018
  Replica Volume Nparticles Density:
   1: 103.723 7 0.0674876
   2: 156.277 105 0.671883
   Total: 260 112 0.430769
 GEMC run progress:  48% 
  Trans: 825/1004
  Vol: 150/1005
  Ex: 8/991
  Replica Volume Nparticles Density:
   1: 103.698 5 0.048217
   2: 156.302 107 0.684572
   Total: 260 112 0.430769
 GEMC run progress:  49% 
  Trans: 820/972
  Vol: 157/1025
  Ex: 7/1003
  Replica Volume Nparticles Density:
   1: 114.335 8 0.0699697
   2: 145.665 104 0.713968
   Total: 260 112 0.430769
 GEMC run progress:  50% 
  Trans: 756/1011
  Vol: 123/985
  Ex: 6/1004
  Replica Volume Nparticles Density:
   1: 103.724 10 0.0964098
   2: 156.276 102 0.652691
   Total: 260 112 0.430769
 GEMC run progress:  51% 
  Trans: 645/964
  Vol: 133/1029
  Ex: 6/1007
  Replica Volume Nparticles Density:
   1: 111.59 12 0.107536
   2: 148.41 100 0.67381
   Total: 260 112 0.430769
 GEMC run progress:  52% 
  Trans: 660/971
  Vol: 162/989
  Ex: 9/1040
  Replica Volume Nparticles Density:
   1: 102.564 9 0.0877504
   2: 157.436 103 0.654233
   Total: 260 112 0.430769
 GEMC run progress:  53% 
  Trans: 747/1005
  Vol: 158/998
  Ex: 8/997
  Replica Volume Nparticles Density:
   1: 104.539 9 0.0860921
   2: 155.461 103 0.662546
   Total: 260 112 0.430769
 GEMC run progress:  54% 
  Trans: 746/1004
  Vol: 147/1009
  Ex: 10/987
  Replica Volume Nparticles Density:
   1: 102.164 5 0.0489408
   2: 157.836 107 0.67792
   Total: 260 112 0.430769
 GEMC run progress:  55% 
  Trans: 774/937
  Vol: 150/1010
  Ex: 6/1053
  Replica Volume Nparticles Density:
   1: 92.2761 5 0.0541852
   2: 167.724 107 0.637953
   Total: 260 112 0.430769
 GEMC run progress:  56% 
  Trans: 750/1031
  Vol: 162/1009
  Ex: 7/960
  Replica Volume Nparticles Density:
   1: 97.8609 6 0.0613115
   2: 162.139 106 0.65376
   Total: 260 112 0.430769
 GEMC run progress:  57% 
  Trans: 819/1031
  Vol: 150/1033
  Ex: 10/966
  Replica Volume Nparticles Density:
   1: 106.764 8 0.0749317
   2: 153.236 104 0.678691
   Total: 260 112 0.430769
 GEMC run progress:  58% 
  Trans: 754/1010
  Vol: 146/1022
  Ex: 10/968
  Replica Volume Nparticles Density:
   1: 103.161 8 0.0775486
   2: 156.839 104 0.663101
   Total: 260 112 0.430769
 GEMC run progress:  59% 
  Trans: 857/1024
  Vol: 135/988
  Ex: 9/958
  Replica Volume Nparticles Density:
   1: 96.6565 5 0.0517296
   2: 163.343 107 0.655061
   Total: 260 112 0.430769
 GEMC run progress:  60% 
  Trans: 843/994
  Vol: 134/1000
  Ex: 10/1006
  Replica Volume Nparticles Density:
   1: 98.3957 3 0.0304891
   2: 161.604 109 0.674487
   Total: 260 112 0.430769
 GEMC run progress:  61% 
  Trans: 1020/1030
  Vol: 151/1031
  Ex: 5/939
  Replica Volume Nparticles Density:
   1: 99.6488 2 0.0200705
   2: 160.351 110 0.685994
   Total: 260 112 0.430769
 GEMC run progress:  62% 
  Trans: 962/1008
  Vol: 132/952
  Ex: 5/1040
  Replica Volume Nparticles Density:
   1: 101.689 5 0.0491696
   2: 158.311 107 0.675885
   Total: 260 112 0.430769
 GEMC run progress:  63% 
  Trans: 841/971
  Vol: 162/1016
  Ex: 15/1013
  Replica Volume Nparticles Density:
   1: 100.003 4 0.0399987
   2: 159.997 108 0.675014
   Total: 260 112 0.430769
 GEMC run progress:  64% 
  Trans: 845/1012
  Vol: 128/988
  Ex: 15/1000
  Replica Volume Nparticles Density:
   1: 98.4058 7 0.071134
   2: 161.594 105 0.649776
   Total: 260 112 0.430769
 GEMC run progress:  65% 
  Trans: 827/976
  Vol: 159/999
  Ex: 13/1025
  Replica Volume Nparticles Density:
   1: 99.1801 8 0.0806614
   2: 160.82 104 0.646686
   Total: 260 112 0.430769
 GEMC run progress:  66% 
  Trans: 828/960
  Vol: 151/1002
  Ex: 16/1038
  Replica Volume Nparticles Density:
   1: 95.2162 2 0.0210048
   2: 164.784 110 0.667542
   Total: 260 112 0.430769
 GEMC run progress:  67% 
  Trans: 1004/1009
  Vol: 143/983
  Ex: 3/1008
  Replica Volume Nparticles Density:
   1: 96.0532 1 0.0104109
   2: 163.947 111 0.677049
   Total: 260 112 0.430769
 GEMC run progress:  68% 
  Trans: 886/966
  Vol: 158/1031
  Ex: 7/1003
  Replica Volume Nparticles Density:
   1: 89.8067 2 0.02227
   2: 170.193 110 0.646324
   Total: 260 112 0.430769
 GEMC run progress:  69% 
  Trans: 834/983
  Vol: 174/970
  Ex: 15/1047
  Replica Volume Nparticles Density:
   1: 93.5148 5 0.0534675
   2: 166.485 107 0.6427
   Total: 260 112 0.430769
 GEMC run progress:  70% 
  Trans: 814/988
  Vol: 167/1012
  Ex: 14/1000
  Replica Volume Nparticles Density:
   1: 100.448 7 0.0696879
   2: 159.552 105 0.658092
   Total: 260 112 0.430769
 GEMC run progress:  71% 
  Trans: 785/1012
  Vol: 166/975
  Ex: 13/1013
  Replica Volume Nparticles Density:
   1: 100.652 4 0.0397409
   2: 159.348 108 0.677762
   Total: 260 112 0.430769
 GEMC run progress:  72% 
  Trans: 934/1038
  Vol: 159/984
  Ex: 11/978
  Replica Volume Nparticles Density:
   1: 93.8783 1 0.0106521
   2: 166.122 111 0.668185
   Total: 260 112 0.430769
 GEMC run progress:  73% 
  Trans: 947/968
  Vol: 153/1008
  Ex: 9/1024
  Replica Volume Nparticles Density:
   1: 99.6567 2 0.0200689
   2: 160.343 110 0.686028
   Total: 260 112 0.430769
 GEMC run progress:  74% 
  Trans: 898/1001
  Vol: 173/1023
  Ex: 18/976
  Replica Volume Nparticles Density:
   1: 94.8677 4 0.042164
   2: 165.132 108 0.654021
   Total: 260 112 0.430769
 GEMC run progress:  75% 
  Trans: 830/988
  Vol: 169/992
  Ex: 20/1020
  Replica Volume Nparticles Density:
   1: 91.7659 4 0.0435892
   2: 168.234 108 0.641963
   Total: 260 112 0.430769
 GEMC run progress:  76% 
  Trans: 726/968
  Vol: 151/1006
  Ex: 11/1026
  Replica Volume Nparticles Density:
   1: 97.3936 7 0.0718733
   2: 162.606 105 0.645731
   Total: 260 112 0.430769
 GEMC run progress:  77% 
  Trans: 725/1009
  Vol: 165/996
  Ex: 16/995
  Replica Volume Nparticles Density:
   1: 95.3146 7 0.073441
   2: 164.685 105 0.637579
   Total: 260 112 0.430769
 GEMC run progress:  78% 
  Trans: 740/998
  Vol: 152/999
  Ex: 9/1003
  Replica Volume Nparticles Density:
   1: 93.2811 8 0.0857623
   2: 166.719 104 0.623804
   Total: 260 112 0.430769
 GEMC run progress:  79% 
  Trans: 773/1017
  Vol: 170/1009
  Ex: 9/974
  Replica Volume Nparticles Density:
   1: 97.0083 7 0.0721588
   2: 162.992 105 0.644204
   Total: 260 112 0.430769
 GEMC run progress:  80% 
  Trans: 814/1022
  Vol: 146/996
  Ex: 8/982
  Replica Volume Nparticles Density:
   1: 98.3191 7 0.0711968
   2: 161.681 105 0.649427
   Total: 260 112 0.430769
 GEMC run progress:  81% 
  Trans: 698/989
  Vol: 134/1034
  Ex: 12/977
  Replica Volume Nparticles Density:
   1: 104.034 11 0.105735
   2: 155.966 101 0.647577
   Total: 260 112 0.430769
 GEMC run progress:  82% 
  Trans: 686/972
  Vol: 147/1014
  Ex: 7/1014
  Replica Volume Nparticles Density:
   1: 105.261 10 0.0950018
   2: 154.739 102 0.659175
   Total: 260 112 0.430769
 GEMC run progress:  83% 
  Trans: 729/1015
  Vol: 127/1000
  Ex: 7/985
  Replica Volume Nparticles Density:
   1: 96.7033 9 0.0930682
   2: 163.297 103 0.630754
   Total: 260 112 0.430769
 GEMC run progress:  84% 
  Trans: 730/999
  Vol: 135/968
  Ex: 9/1033
  Replica Volume Nparticles Density:
   1: 103.479 10 0.0966384
   2: 156.521 102 0.651668
   Total: 260 112 0.430769
 GEMC run progress:  85% 
  Trans: 651/1016
  Vol: 159/967
  Ex: 13/1017
  Replica Volume Nparticles Density:
   1: 114.672 17 0.148248
   2: 145.328 95 0.653696
   Total: 260 112 0.430769
 GEMC run progress:  86% 
  Trans: 561/952
  Vol: 138/980
  Ex: 19/1068
  Replica Volume Nparticles Density:
   1: 113.852 18 0.158101
   2: 146.148 94 0.643182
   Total: 260 112 0.430769
 GEMC run progress:  87% 
  Trans: 627/971
  Vol: 150/1032
  Ex: 9/997
  Replica Volume Nparticles Density:
   1: 101.842 13 0.127648
   2: 158.158 99 0.625958
   Total: 260 112 0.430769
 GEMC run progress:  88% 
  Trans: 686/986
  Vol: 132/990
  Ex: 14/1024
  Replica Volume Nparticles Density:
   1: 98.3197 9 0.0915381
   2: 161.68 103 0.63706
   Total: 260 112 0.430769
 GEMC run progress:  89% 
  Trans: 772/1032
  Vol: 136/989
  Ex: 23/979
  Replica Volume Nparticles Density:
   1: 89.7165 2 0.0222924
   2: 170.283 110 0.645982
   Total: 260 112 0.430769
 GEMC run progress:  90% 
  Trans: 863/967
  Vol: 153/1044
  Ex: 11/989
  Replica Volume Nparticles Density:
   1: 94.5097 3 0.0317428
   2: 165.49 109 0.658649
   Total: 260 112 0.430769
 GEMC run progress:  91% 
  Trans: 922/988
  Vol: 140/955
  Ex: 10/1057
  Replica Volume Nparticles Density:
   1: 98.3306 3 0.0305093
   2: 161.669 109 0.674215
   Total: 260 112 0.430769
 GEMC run progress:  92% 
  Trans: 890/979
  Vol: 168/1010
  Ex: 8/1011
  Replica Volume Nparticles Density:
   1: 92.6162 1 0.0107972
   2: 167.384 111 0.663147
   Total: 260 112 0.430769
 GEMC run progress:  93% 
  Trans: 871/969
  Vol: 160/1016
  Ex: 10/1015
  Replica Volume Nparticles Density:
   1: 86.4623 3 0.0346972
   2: 173.538 109 0.628106
   Total: 260 112 0.430769
 GEMC run progress:  94% 
  Trans: 903/1018
  Vol: 187/992
  Ex: 17/990
  Replica Volume Nparticles Density:
   1: 88.183 4 0.0453602
   2: 171.817 108 0.628576
   Total: 260 112 0.430769
 GEMC run progress:  95% 
  Trans: 889/964
  Vol: 185/1032
  Ex: 12/1004
  Replica Volume Nparticles Density:
   1: 78.5579 2 0.0254589
   2: 181.442 110 0.606254
   Total: 260 112 0.430769
 GEMC run progress:  96% 
  Trans: 945/1038
  Vol: 223/975
  Ex: 21/987
  Replica Volume Nparticles Density:
   1: 79.3995 5 0.0629727
   2: 180.601 107 0.592468
   Total: 260 112 0.430769
 GEMC run progress:  97% 
  Trans: 851/1036
  Vol: 168/994
  Ex: 18/970
  Replica Volume Nparticles Density:
   1: 83.3347 3 0.0359994
   2: 176.665 109 0.616986
   Total: 260 112 0.430769
 GEMC run progress:  98% 
  Trans: 830/974
  Vol: 203/1014
  Ex: 31/1012
  Replica Volume Nparticles Density:
   1: 80.6045 2 0.0248125
   2: 179.396 110 0.61317
   Total: 260 112 0.430769
 GEMC run progress:  99% 
  Trans: 897/1003
  Vol: 213/1036
  Ex: 21/961
  Replica Volume Nparticles Density:
   1: 71.5804 5 0.0698515
   2: 188.42 107 0.567882
   Total: 260 112 0.430769
 GEMC run progress: 100% 
  Trans: 915/1007
  Vol: 262/1019
  Ex: 27/974
  Replica Volume Nparticles Density:
   1: 68.8133 4 0.0581283
   2: 191.187 108 0.564893
   Total: 260 112 0.430769
