LAMMPS (10 Sep 2025 - Development - patch_10Sep2025-660-gac55f58ffb-modified)
Processor partition = 0
OMP_NUM_THREADS environment is not set. Defaulting to 1 thread.
  using 1 OpenMP thread(s) per MPI task
#mpirun -np 5 $LMPGIT/build/lmp -in in.gemc.lj -p 1 4 -var nsteps 80 -var ntranslate 3 -var nexchange 0 -var nvolume 1
# 3d Lennard-Jones melt to vapor-liquid mixture GEMC
# mpirun -np 5 ./lmp -in in.gemc.lj -p 1 4

variable        temp index 1.0
variable        ntranslate index 10
variable        nexchange index 10
variable        nvolume index 10
variable        displace index 0.5
variable        max_dlogvolratio index 0.5
variable        nsteps index 10000

units           lj
atom_style      atomic

# initialize gas state in partition 1

partition       yes 1 lattice fcc 0.05
lattice fcc 0.05
Lattice spacing in x,y,z = 4.3088694 4.3088694 4.3088694
partition       yes 1 region box block 0 1 0 1 0 1
region box block 0 1 0 1 0 1

# initialize liquid state in partition 2

partition       yes 2 lattice fcc 0.6
partition       yes 2 region box block 0 3 0 3 0 3

create_box      1 box
Created orthogonal box = (0 0 0) to (4.3088694 4.3088694 4.3088694)
  1 by 1 by 1 MPI processor grid
create_atoms    1 box
Created 4 atoms
  using lattice units in orthogonal box = (0 0 0) to (4.3088694 4.3088694 4.3088694)
  create_atoms CPU = 0.000 seconds
mass            1 1.0

velocity        all create 3.0 87287 loop geom

pair_style      lj/cut 2.5
pair_coeff      1 1 1.0 1.0 2.5

neighbor        0.3 bin
neigh_modify    every 1 delay 5 check yes

fix             1 all nve

thermo          50
thermo_style    custom step temp pe etotal press vol atoms density
run             250
Generated 0 of 0 mixed pair_coeff terms from geometric mixing rule
Neighbor list info ...
  update: every = 1 steps, delay = 5 steps, check = yes
  max neighbors/atom: 2000, page size: 100000
  master list distance cutoff = 2.8
  ghost atom cutoff = 2.8
  binsize = 1.4, bins = 4 4 4
  1 neighbor lists, perpetual/occasional/extra = 1 0 0
  (1) pair lj/cut, perpetual
      attributes: half, newton on
      pair build: half/bin/atomonly/newton
      stencil: half/bin/3d
      bin: standard
Per MPI rank memory allocation (min/avg/max) = 3.059 | 3.059 | 3.059 Mbytes
   Step          Temp          PotEng         TotEng         Press          Volume        Atoms       Density    
         0   3              0              3.375          0.1125         80                     4   0.05         
        50   3.0165043     -0.026598173    3.3669691      0.11051182     80                     4   0.05         
       100   3.0488308     -0.071119653    3.358815       0.10745073     80                     4   0.05         
       150   3.1012973     -0.12610199     3.3628575      0.10509185     80                     4   0.05         
       200   3.2255871     -0.27398268     3.3548028      0.14486233     80                     4   0.05         
       250   3.1160493     -0.15079937     3.354756       0.10385735     80                     4   0.05         
Loop time of 0.00046908 on 1 procs for 250 steps with 4 atoms

Performance: 230237912.510 tau/day, 532958.131 timesteps/s, 2.132 Matom-step/s
98.7% CPU use with 1 MPI tasks x 1 OpenMP threads

MPI task timing breakdown:
Section |  min time  |  avg time  |  max time  |%varavg| %total
---------------------------------------------------------------
Pair    | 5.2293e-05 | 5.2293e-05 | 5.2293e-05 |   0.0 | 11.15
Neigh   | 8.1825e-05 | 8.1825e-05 | 8.1825e-05 |   0.0 | 17.44
Comm    | 0.00015972 | 0.00015972 | 0.00015972 |   0.0 | 34.05
Output  | 2.7461e-05 | 2.7461e-05 | 2.7461e-05 |   0.0 |  5.85
Modify  | 5.8177e-05 | 5.8177e-05 | 5.8177e-05 |   0.0 | 12.40
Other   |            | 8.961e-05  |            |       | 19.10

Nlocal:              4 ave           4 max           4 min
Histogram: 1 0 0 0 0 0 0 0 0 0
Nghost:             52 ave          52 max          52 min
Histogram: 1 0 0 0 0 0 0 0 0 0
Neighs:              7 ave           7 max           7 min
Histogram: 1 0 0 0 0 0 0 0 0 0

Total # of neighbors = 7
Ave neighs/atom = 1.75
Neighbor list builds = 31
Dangerous builds = 0
unfix           1

velocity        all create 0.0 87287 loop geom

#   args: nevery ntranslate nexchange nvolume box_temp displace max_dlogvolratio seed
fix              2 all gemc 1 ${ntranslate} ${nexchange} ${nvolume} ${temp} ${displace} ${max_dlogvolratio} 29494
fix              2 all gemc 1 10 ${nexchange} ${nvolume} ${temp} ${displace} ${max_dlogvolratio} 29494
fix              2 all gemc 1 10 10 ${nvolume} ${temp} ${displace} ${max_dlogvolratio} 29494
fix              2 all gemc 1 10 10 10 ${temp} ${displace} ${max_dlogvolratio} 29494
fix              2 all gemc 1 10 10 10 1.0 ${displace} ${max_dlogvolratio} 29494
fix              2 all gemc 1 10 10 10 1.0 0.5 ${max_dlogvolratio} 29494
fix              2 all gemc 1 10 10 10 1.0 0.5 0.5 29494

variable        mydensity equal density
fix             3 all ave/time 1 50 50 v_mydensity ave window 20
thermo_style    custom step temp pe etotal press vol atoms density f_3

run             ${nsteps}
run             10000
WARNING: No fixes with time integration, atoms won't move
For more information see https://docs.lammps.org/err0028 (src/verlet.cpp:60)
Generated 0 of 0 mixed pair_coeff terms from geometric mixing rule
0 atoms in group FixGEMC:gemc_exclusion_group:2
Per MPI rank memory allocation (min/avg/max) = 3.059 | 3.059 | 3.059 Mbytes
   Step          Temp          PotEng         TotEng         Press          Volume        Atoms       Density          f_3      
       250   0             -0.15079937    -0.15079937    -0.012994499    80                     4   0.05           0            
       300   2.5698524     -0.43327339     1.8795938      0.080572129    74.310465              5   0.067285274    0.034065342  
       350   1.8968919     -0.33072478     1.8032786      0.059796074    81.442386              4   0.049114475    0.040233614  
       400   1.2317773     -0.14207284     1.2436766      0.029969417    89.308844              4   0.044788398    0.047430671  
       450   1.0539133     -0.063673277    1.1219792      0.029003136    91.872273              4   0.043538707    0.046733738  
       500   1.8477245     -0.17515144     1.4878006      0.038276442    102.52852              5   0.04876692     0.047200249  
       550   1.8789082     -0.95744729     0.45173383     0.058942327    93.792831              6   0.063970774    0.045245944  
       600   2.7727474     -0.28002445     1.502456       0.049786774    94.233206              7   0.074283793    0.047022005  
       650   1.2721509     -0.33577949     0.80915632     0.023971889    94.517459              5   0.05290028     0.050062271  
       700   1.6352999     -0.31093206     0.91554285     0.02355277     91.496487              6   0.065576288    0.052244857  
       750   1.8648646     -0.44779153     0.75105001     0.032286352    92.73778               7   0.075481643    0.054331046  
       800   2.020196      -0.53166116     0.76703625     0.025963555    94.300701              7   0.074230626    0.056919389  
       850   3.1731649     -0.53476827     1.250137       0.064896048    98.67326               8   0.081075663    0.058918664  
       900   3.6287466     -0.43399609     1.3803772      0.0775382      103.46737              9   0.086983947    0.060656541  
       950   3.7602989     -0.58251709     1.2976324      0.10655327     106.61885              9   0.084412842    0.062514521  
      1000   3.9199471     -0.62115256     1.1428236      0.098828563    107.7904              10   0.092772637    0.064376598  
      1050   3.3342561     -0.69762055     0.80279469     0.083900748    105.99991             10   0.094339701    0.066474068  
      1100   3.0345523     -0.77620778     0.46519996     0.061556786    104.52988             11   0.10523307     0.06784429   
      1150   1.7720451     -0.68257045     0.31420492     0.011281524    105.97046              8   0.075492738    0.068628877  
      1200   0.30647829    -0.42674214     0.032975302   -0.00087764807  104.54051              3   0.02869701     0.067423011  
      1250   1.3011918     -0.29310416     1.1707366      0.11682821     108.17353              4   0.036977623    0.065910272  
      1300   1.3628829     -0.15327152     1.3799717      0.02868587     104.29496              4   0.038352764    0.066024437  
      1350   0.74102851    -0.50432878     0.60721398     0.0029201264   97.453077              3   0.030784046    0.065546875  
      1400   0.061642106    0              0.27738948     0.0020834267   88.760656              1   0.011266253    0.064029414  
      1450   1.4099639     -0.61516095     1.4997849      0.024286898    98.238081              3   0.030538056    0.063329875  
      1500   0.94260124    -0.017129493    2.1037233      0.029187109    94.558282              2   0.021150976    0.062283873  
      1550   1.8449927     -0.085555834    2.6819333      0.054607236    92.408279              3   0.032464624    0.061932432  
      1600   2.039509      -0.28953733     2.0049103      0.04310647     96.025504              4   0.0416556      0.061212783  
      1650   1.4489842     -0.48545354     2.774761       0.056087643    91.741959              2   0.021800276    0.058922017  
      1700   0.40357278    -0.3414058      0.26395337     0.0062840989   97.424744              3   0.030792999    0.056373255  
      1750   0.7146377     -0.52186694     0.12130699     0.01238909     95.644331              5   0.052277013    0.055313697  
      1800   0.25175839     0              0.56645637     0.0080967673   93.281076              2   0.021440576    0.053256758  
      1850   0.82144296    -0.023204361    1.8250423      0.024542728    96.672795              2   0.020688344    0.049985696  
      1900   0.45776833    -0.38788206     0.29877043     0.010154872    97.960989              3   0.030624436    0.04733696   
      1950   1.0688606     -0.46778599     0.21933869    -0.0070146747   101.95536              7   0.0686575      0.045288817  
      2000   1.0496797     -0.34779457     0.59691716     0.025294615    106.87768              5   0.046782452    0.043176122  
      2050   0.5988878     -0.45881671     0.88868085     0.0097298819   100.53016              2   0.019894527    0.040370693  
      2100   0.6738908     -0.019383557    1.4968707      0.019526698    99.582511              2   0.020083848    0.036770677  
      2150   1.55825       -0.21100468     1.5420266      0.036420505    96.338267              4   0.041520365    0.03425392   
      2200   0.59622417    -0.010759974    1.3307444      0.017811597    98.018535              2   0.020404304    0.03295028   
      2250   0.15201372     0              0.68406172     0.0046457838   98.16237               1   0.010187203    0.032192042  
      2300   0.24838875    -0.31094235     0.24793233    -0.0022044158   91.641414              2   0.021824194    0.031679586  
      2350   0.47857197    -0.23840322     0.19231155    -0.0073870489   100.85543              5   0.04957591     0.031871554  
      2400   0.47857197    -0.25902608     0.17168869    -0.0074599145   106.91603              5   0.046765673    0.032966164  
      2450   0.41500519    -0.025528238    0.90823344     0.011574693    98.857082              2   0.020231226    0.033668515  
      2500   0.17239609     0              0.38789119     0.0057423807   90.065129              2   0.022206153    0.033514732  
      2550   0.58787935     0              2.6454571      0.019391031    90.951225              1   0.010994904    0.032867181  
      2600   1.0180989     -0.49371873     1.7970039      0.027978381    94.938154              2   0.021066346    0.031345569  
      2650   0.29523033     0              1.3285365      0.0090513071   97.852275              1   0.010219487    0.0308295    
      2700   0.47529802     0              2.1388411      0.015778495    90.369457              1   0.011065686    0.030468805  
      2750   0.49940921     0              1.1236707      0.015915676    94.135346              2   0.021246005    0.028791798  
      2800   1.2138608     -0.26462934     1.5561619      0.061454846    102.2216               3   0.029348004    0.027906826  
      2850   1.4036036     -0.49648503     0.40583159     0.093392637    93.444354              7   0.074910893    0.029176193  
      2900   0.85987606    -0.033124754    1.2566893      0.025756498    92.639887              3   0.032383459    0.030460728  
      2950   4.0556375     -0.5341267      1.4936921      0.070205564    101.10975              9   0.089012189    0.03101046   
      3000   6.5238291     -0.88998575     1.3682628      0.097763909    97.846813             13   0.13286074     0.033546472  
      3050   4.8325049     -0.64649162     1.3304422      0.22146546     100.22441             11   0.1097537      0.037405075  
      3100   3.5444454     -0.3813666      1.8972054      0.2131016      94.613256              7   0.073985405    0.041152939  
      3150   1.0495206     -0.1047822      1.0759285      0.025582642    91.608008              4   0.043664305    0.042694418  
      3200   0.79973355    -0.6895863      0.030173897    0.022471188    95.574706              5   0.052315097    0.043913806  
      3250   1.0083027     -0.27462874     0.37356585    -0.0013124287   92.886092              7   0.075361121    0.046424322  
      3300   0.34752406     0              1.5638583      0.01087779     95.844116              1   0.010433609    0.047569328  
      3350   0.34752406     0              1.5638583      0.012262381    85.022001              1   0.011761662    0.046584443  
      3400   1.4826365     -0.019826946    1.6481391      0.045953076    93.364796              4   0.042842701    0.045632678  
      3450   1.2825934     -0.097865321    1.3450523      0.033457703    92.616235              4   0.043188972    0.045614371  
      3500   0.37618227     0              0.8464101      0.012073982    93.469312              2   0.021397397    0.045963573  
      3550   0.79523199    -0.020121806    1.7691502      0.025699117    89.732079              2   0.022288573    0.046473101  
      3600   0.90390852    -0.2750804      0.74181669     0.019194016    93.985521              4   0.042559747    0.047352424  
      3650   1.4687534     -0.34306733     0.97881075     0.069799632    96.669083              5   0.051722845    0.04889445   
      3700   2.1552009     -0.95701042     0.42847591     0.101296       105.42192              7   0.066399854    0.05140739   
      3750   2.1349785     -0.42267662     0.94980954     0.019998125    105.99788              7   0.066039058    0.054042052  
      3800   2.71719       -0.50275223     0.85584278     0.014617947    101.58277              9   0.088597698    0.0570078    
      3850   2.8028483     -0.61219308     0.64908868     0.030267521    104.07229             10   0.096087054    0.059895842  
      3900   4.2343451     -0.81688518     0.45341835     0.12373566     106.90843             15   0.14030699     0.063144867  
      3950   5.8267835     -0.84665658     0.79212626     0.040595356    108.6781              16   0.14722377     0.067375053  
      4000   4.2677841     -0.88191392     0.48987381     0.061572573    115.77314             14   0.12092615     0.068858722  
      4050   3.5446461     -0.5770511      0.7521912      0.066184128    113.1478              12   0.10605597     0.068773627  
      4100   3.6953003     -0.74213502     0.64360261     0.024575451    111.32323             12   0.10779421     0.069476037  
      4150   3.2718618     -0.95794735     0.38054155     0.06937145     112.35767             11   0.097901635    0.07200764   
      4200   2.6626726     -0.44764639     1.0501069      0.041828764    103.47128              8   0.077316142    0.074586448  
      4250   2.6093408     -0.54312956     0.63107379     0.01759484     105.19254             10   0.095063779    0.075055538  
      4300   1.8589108     -0.34417497     0.85083912     0.053701662    97.936096              7   0.071475179    0.07658601   
      4350   2.8418463     -0.11821738     2.0131674      0.073890369    96.666798              6   0.062068881    0.07839759   
      4400   3.7276175     -0.4085466      1.987779       0.082388313    102.41707              7   0.068347981    0.079991152  
      4450   3.7743002     -0.50450718     1.6185367      0.049873814    99.229682              8   0.080621039    0.081770938  
      4500   2.4895034     -0.46773571     1.3993918      0.040610509    93.433078              6   0.064217086    0.083585284  
      4550   2.0345782     -0.016121978    3.0357453      0.066358135    90.54205               3   0.033133776    0.08477701   
      4600   1.740682      -0.52157796     1.0450359      0.028267875    98.605962              5   0.050706873    0.08558576   
      4650   1.9448251     -0.034891601    2.1530367      0.05152706     107.90965              4   0.037068049    0.085276729  
      4700   1.3489312     -0.21977998     0.99425813     0.026136261    100.74043              5   0.049632508    0.084934162  
      4750   0.49885323    -0.17094922     0.39026066     0.002731627    101.94269              4   0.039237732    0.084283518  
      4800   0.56955756    -0.31521241     0.32553984     0.03956181     94.620862              4   0.042273975    0.081982241  
      4850   1.6477114     -0.30289426     1.180046       0.043850413    100.65768              5   0.049673309    0.079281954  
      4900   2.6044423     -0.36565813     1.3086262      0.11071018     98.004582              7   0.071425232    0.076049203  
      4950   2.7101149     -0.93308894     0.8091278      0.015719733    103.72277              7   0.067487594    0.072129771  
      5000   0.99668426    -0.11590047     1.0053693      0.023149641    90.440745              4   0.044227853    0.068166095  
      5050   1.6353276     -0.37890792     1.0928869      0.021788997    103.69795              5   0.048216959    0.064421775  
      5100   3.1020287     -0.25224005     1.7419212      0.100685       106.90397              7   0.06547933     0.061657764  
      5150   3.2833996     -0.52397979     1.3229325      0.062561991    114.33521              8   0.069969699    0.059518714  
      5200   2.7661617     -0.37203437     1.4062124      0.064190251    112.40024              7   0.062277448    0.058004117  
      5250   3.9412991     -0.60115186     1.1724327      0.097475219    103.72393             10   0.096409767    0.057963567  
      5300   3.8792979     -0.68046672     1.0652173      0.031402799    110.18751             10   0.090754391    0.058690061  
      5350   5.4632808     -0.68657296     1.3621573      0.15727796     111.59018             12   0.10753634     0.06047322   
      5400   3.897407      -0.60638733     0.98800642     0.13451595     110.16729             11   0.099848146    0.062221235  
      5450   3.667729      -0.48745659     1.3464079      0.070343448    102.56363              9   0.087750401    0.063015766  
      5500   4.2006366     -0.51137414     1.5889442      0.070342771    104.07548              9   0.086475696    0.063564351  
      5550   4.2006366     -0.59480188     1.5055164      0.15702241     104.53916              9   0.086092142    0.065524253  
      5600   3.0047651     -0.44951181     1.4821229      0.048231881    103.74195              7   0.067475117    0.06719045   
      5650   2.2541927     -0.75609377     1.2726796      0.023051482    102.16424              5   0.048940806    0.067701953  
      5700   0.89032872    -0.12201446     0.87960535     0.017606283    98.74269               4   0.040509328    0.067288113  
      5750   0.97654706    -0.85773111     0.021161242   -0.017020221    92.276144              5   0.054185186    0.066844155  
      5800   1.6766007     -0.60745278     0.33563513     0.02073972     103.33614              8   0.07741725     0.06832731   
      5850   1.325613      -0.60524377     0.38896596     0.0035105229   97.860886              6   0.061311523    0.069309687  
      5900   0.355071      -0.080388923    0.31906596     0.004357746    99.71614               4   0.040113867    0.069069717  
      5950   1.3036768     -0.5149223      0.21839589     0.060596227    102.06814              8   0.078379015    0.068946673  
      6000   1.3592135     -0.34765112     0.41690646     0.0049123468   108.9539               8   0.073425547    0.070092701  
      6050   2.0580082     -0.21154328     0.94608633     0.027506299    110.53032              8   0.072378327    0.071770916  
      6100   1.518631      -0.54028225     0.598691       0.018904612    103.279                6   0.058095061    0.072485949  
      6150   1.0178257     -0.31230694     0.60373615     0.0090542993   96.656514              5   0.051729571    0.071286921  
      6200   1.1288035     -0.39210949     0.45449312     0.014412741    104.35892              6   0.057493889    0.070734588  
      6250   0.68422835    -0.24341107     0.78293146     0.010713771    98.395706              3   0.030489135    0.06874789   
      6300   0.60741166     0              1.3666762      0.018437844    98.83124               2   0.020236516    0.064650226  
      6350   1.4066659     -0.47542502     2.6895731      0.0532208      99.648803              2   0.020070487    0.060777838  
      6400   1.4066659      0              3.1649982      0.042503628    99.285584              2   0.020143911    0.056706775  
      6450   1.7644052     -0.24092355     1.3470411      0.050724266    101.68894              5   0.049169556    0.053779311  
      6500   1.3088597     -0.23408437     1.7292052      0.029024547    95.852872              3   0.031297967    0.051984675  
      6550   0.97509663    -0.18586416     0.91111956     0.017338888    100.00325              4   0.0399987      0.049474945  
      6600   0.71624303    -0.47964797     0.32612544     0.015306359    97.5599                4   0.041000452    0.047272673  
      6650   1.0539601     -0.58877254     0.088773266    0.02423949     98.40581               7   0.071134011    0.047941188  
      6700   0.51372485    -0.22813292     0.34980753     0.0032212352   92.242339              4   0.043364035    0.048521292  
      6750   1.3671376     -0.45607907     0.31293584    -0.012034609    99.180068              8   0.080661368    0.049661777  
      6800   1.5198823     -0.35746237     0.78244936     0.017570172    99.128653              6   0.060527404    0.049751838  
      6850   0.25965078    -0.089622679    0.49459159     0.0046016362   95.216245              2   0.021004819    0.048880139  
      6900   0.34214742    -0.062405882    0.70742582     0.00821134     95.615987              2   0.020917004    0.047064569  
      6950   0.19383444     0              0.87225498     0.0060539723   96.053186              1   0.010410899    0.04468383   
      7000   1.4741837     -0.28667355     1.3717831      0.029828347    101.63275              4   0.039357394    0.042665932  
      7050   0.37151968    -0.020375276    0.81554401     0.011512564    89.806722              2   0.022270048    0.040217785  
      7100   1.635945      -0.62195055     0.42972838     0.042221164    90.761858              7   0.077124909    0.03952115   
      7150   0.92772741    -0.094795448    0.74015922     0.094952445    93.514777              5   0.053467486    0.040005807  
      7200   0.9409475     -0.5768759      0.48169004     0.03033083     93.427248              4   0.042814062    0.040094031  
      7250   1.9325708     -0.64146291     0.60090401     0.0045961403   100.44784              7   0.069687909    0.041117457  
      7300   1.2010862     -0.51253385     0.56844373     0.0059120309   95.416368              5   0.052401911    0.043746504  
      7350   2.0650195     -0.11115693     2.21199        0.05389519     100.65193              4   0.039740917    0.045198846  
      7400   2.4135927     -0.27922139     2.4360704      0.077688801    95.800963              4   0.041753234    0.045657895  
      7450   0.58919144     0              2.6513615      0.018828364    93.878272              1   0.010652092    0.045121705  
      7500   0.74981285     0              1.6870789      0.024638856    91.296386              2   0.021906672    0.043925374  
      7550   0.82864073    -0.44679683     1.4176448      0.016122828    99.656717              2   0.020068893    0.042755299  
      7600   2.1317857     -0.31556919     2.0826897      0.050731236    88.367104              4   0.045265713    0.042715593  
      7650   1.1914365     -0.048374017    1.2919921      0.033636705    94.867676              4   0.042163993    0.041546827  
      7700   1.7107576     -0.17129731     1.753305       0.10083113     89.379748              4   0.044752867    0.041028679  
      7750   1.3665436     -0.19804334     1.3393182      0.02902282     91.765942              4   0.043589156    0.040094255  
      7800   2.0738234     -0.50389631     1.0514713      0.027104696    94.999622              6   0.063158146    0.039671877  
      7850   2.2459575     -0.73330139     0.7105284      0.0029018643   97.39357               7   0.071873328    0.040747046  
      7900   2.1319237     -0.56073106     0.63847604    -0.00050688584  88.856684              8   0.09003262     0.043754631  
      7950   2.9417701     -0.56168802     1.3294499      0.11655148     95.31464               7   0.073440974    0.047445489  
      8000   2.7786821     -0.70548593     1.0808097      0.049695701    96.447799              7   0.072578121    0.049440976  
      8050   3.8528245     -0.95582083     1.2113929      0.061420288    93.281077              8   0.085762303    0.05179423   
      8100   2.6618371     -0.42960229     1.5667755      0.24681373     92.7608                6   0.064682495    0.052566865  
      8150   2.928441      -0.50597046     1.3765987      0.082000165    97.008252              7   0.072158809    0.052832293  
      8200   2.9787555     -0.4618043      1.4531099      0.042236664    97.817291              7   0.07156199     0.053304734  
      8250   2.0222684     -0.68692464     0.61310507     0.035408536    98.319081              7   0.07119676     0.053494854  
      8300   4.2587293     -0.50822271     1.2339847      0.1473553      106.21933             11   0.10355931     0.054188504  
      8350   5.0567046     -1.1387784      0.92987354     0.12677036     104.03408             11   0.10573459     0.056951952  
      8400   4.1840688     -0.75824501     0.95341951     0.15340249     101.29934             11   0.10858906     0.060569301  
      8450   3.5201649     -0.42467046     1.1594037      0.025612597    105.26119             10   0.095001772    0.063458143  
      8500   2.7851318     -0.36092154     0.89238775     0.040547768    110.66596             10   0.090362021    0.067056675  
      8550   2.598769      -0.81864599     0.48073852     0.0084772871   96.703322              9   0.093068158    0.070442772  
      8600   2.8211512     -0.35033682     1.0602388      0.0419326      102.10722              9   0.088142637    0.073068916  
      8650   3.6607111     -0.62827378     1.0190462      0.029671399    103.47853             10   0.096638404    0.076304716  
      8700   5.4559384     -1.0759089      0.81268517     0.041811541    104.19826             13   0.12476216     0.079966255  
      8750   6.6429218     -0.89233455     0.86608592     0.11407356     114.67245             17   0.14824834     0.08428352   
      8800   6.4003745     -0.97500137     0.82510397     0.12261905     113.864               16   0.14051851     0.088268835  
      8850   6.9976125     -0.86094923     0.8884539      0.21514521     113.8516              18   0.15810055     0.092389468  
      8900   3.9920769     -0.66784708     0.96527528     0.21718722     107.03302             11   0.10277202     0.094996578  
      8950   4.7436719     -0.9452691      0.69677118    -0.029559318    101.84234             13   0.12764828     0.096356448  
      9000   5.3445968     -0.98914263     1.0150812      0.069640702    101.65471             12   0.11804667     0.09957155   
      9050   3.4805912     -0.49327335     1.2470222      0.055995427    98.319683              9   0.091538131    0.1010926    
      9100   2.6405117     -0.24246322     1.4550086      0.09337409     94.007914              7   0.074461816    0.10213526   
      9150   0.70717564    -0.042567905    1.5485773      0.021791325    89.716543              2   0.022292433    0.10219028   
      9200   1.1238799     -0.1215029      1.5643169      0.027707946    98.3435                3   0.030505321    0.099989154  
      9250   1.7725438     -0.14821877     2.510597       0.047450889    94.509674              3   0.031742782    0.09852025   
      9300   0.80546195    -0.063954204    1.7483352      0.022978615    94.405969              2   0.021185101    0.095645891  
      9350   1.3936041     -0.016527106    2.073879       0.041515795    98.330578              3   0.030509329    0.092009944  
      9400   1.2639397     -0.060794407    1.8351152      0.038346784    89.743867              3   0.033428468    0.089047068  
      9450   0.42687001     0              1.920915       0.013827057    92.616237              1   0.010797243    0.085721982  
      9500   1.3353441     -0.22391996     1.7790961      0.090493892    84.101614              3   0.035671135    0.08279263   
      9550   1.4730413     -0.50109166     1.7084703      0.032316074    86.462326              3   0.034697193    0.081093178  
      9600   0.78170266    -0.14063738     0.73877811     0.01528846     88.240236              4   0.045330794    0.078554024  
      9650   1.0091253     -0.03794437     1.0973216      0.030927771    88.182967              4   0.045360234    0.07528722   
      9700   0.31459017     0              1.4156558      0.013894943    67.92187               1   0.014722798    0.07090225   
      9750   0.3509483     -0.010260694    0.77937299     0.012882413    78.557867              2   0.02545894     0.065420581  
      9800   0.045739462    0              0.20582758     0.0018455575   74.350645              1   0.013449782    0.059665899  
      9850   1.0104468     -0.224453       0.68494911     0.012443719    79.399452              5   0.062972727    0.054158611  
      9900   0.32773867    -0.29055421     0.078151786    0.029074077    81.064959              4   0.049343144    0.050681812  
      9950   0.68590766    -0.031536288    0.99732521     0.02244256     83.334712              3   0.035999404    0.047440947  
     10000   1.877425      -0.51587562     2.3002618      0.069519169    83.722534              3   0.035832647    0.042798711  
     10050   0.56072292    -0.46424561     0.79738096     0.037688332    80.604493              2   0.024812513    0.039400117  
     10100   0.58142062    -0.26503983     1.0431566      0.011592494    76.076278              2   0.026289404    0.036442787  
     10150   2.7654076     -0.50129868     1.9875682      0.060083825    71.580441              5   0.069851484    0.03558865   
     10200   1.7233554     -0.14587732     2.4391558      0.061390302    71.367926              3   0.04203569     0.036634147  
     10250   1.069621      -0.35334371     0.84997987     0.028544718    68.813332              4   0.058128271    0.036443716  
Loop time of 55.7075 on 1 procs for 10000 steps with 4 atoms

Performance: 77547.921 tau/day, 179.509 timesteps/s, 718.036 atom-step/s
98.8% CPU use with 1 MPI tasks x 1 OpenMP threads

MPI task timing breakdown:
Section |  min time  |  avg time  |  max time  |%varavg| %total
---------------------------------------------------------------
Pair    | 0.010585   | 0.010585   | 0.010585   |   0.0 |  0.02
Neigh   | 0.028683   | 0.028683   | 0.028683   |   0.0 |  0.05
Comm    | 0.017242   | 0.017242   | 0.017242   |   0.0 |  0.03
Output  | 0.0035929  | 0.0035929  | 0.0035929  |   0.0 |  0.01
Modify  | 55.609     | 55.609     | 55.609     |   0.0 | 99.82
Other   |            | 0.0381     |            |       |  0.07

Nlocal:              4 ave           4 max           4 min
Histogram: 1 0 0 0 0 0 0 0 0 0
Nghost:             42 ave          42 max          42 min
Histogram: 1 0 0 0 0 0 0 0 0 0
Neighs:              7 ave           7 max           7 min
Histogram: 1 0 0 0 0 0 0 0 0 0

Total # of neighbors = 7
Ave neighs/atom = 1.75
Neighbor list builds = 422287
Dangerous builds = 0
Total wall time: 0:00:55
