LAMMPS (10 Sep 2025 - Development - patch_10Sep2025-660-gac55f58ffb-modified)
Processor partition = 1
OMP_NUM_THREADS environment is not set. Defaulting to 1 thread.
  using 1 OpenMP thread(s) per MPI task
#mpirun -np 5 $LMPGIT/build/lmp -in in.gemc.lj -p 1 4 -var nsteps 80 -var ntranslate 3 -var nexchange 0 -var nvolume 1
# 3d Lennard-Jones melt to vapor-liquid mixture GEMC
# mpirun -np 5 ./lmp -in in.gemc.lj -p 1 4

variable        temp index 1.0
variable        ntranslate index 10
variable        nexchange index 10
variable        nvolume index 10
variable        displace index 0.5
variable        max_dlogvolratio index 0.5
variable        nsteps index 10000

units           lj
atom_style      atomic

# initialize gas state in partition 1

partition       yes 1 lattice fcc 0.05
partition       yes 1 region box block 0 1 0 1 0 1

# initialize liquid state in partition 2

partition       yes 2 lattice fcc 0.6
lattice fcc 0.6
Lattice spacing in x,y,z = 1.8820721 1.8820721 1.8820721
partition       yes 2 region box block 0 3 0 3 0 3
region box block 0 3 0 3 0 3

create_box      1 box
Created orthogonal box = (0 0 0) to (5.6462162 5.6462162 5.6462162)
  1 by 2 by 2 MPI processor grid
create_atoms    1 box
Created 108 atoms
  using lattice units in orthogonal box = (0 0 0) to (5.6462162 5.6462162 5.6462162)
  create_atoms CPU = 0.000 seconds
mass            1 1.0

velocity        all create 3.0 87287 loop geom

pair_style      lj/cut 2.5
pair_coeff      1 1 1.0 1.0 2.5

neighbor        0.3 bin
neigh_modify    every 1 delay 5 check yes

fix             1 all nve

thermo          50
thermo_style    custom step temp pe etotal press vol atoms density
run             250
Generated 0 of 0 mixed pair_coeff terms from geometric mixing rule
Neighbor list info ...
  update: every = 1 steps, delay = 5 steps, check = yes
  max neighbors/atom: 2000, page size: 100000
  master list distance cutoff = 2.8
  ghost atom cutoff = 2.8
  binsize = 1.4, bins = 5 5 5
  1 neighbor lists, perpetual/occasional/extra = 1 0 0
  (1) pair lj/cut, perpetual
      attributes: half, newton on
      pair build: half/bin/atomonly/newton
      stencil: half/bin/3d
      bin: standard
Per MPI rank memory allocation (min/avg/max) = 3.061 | 3.061 | 3.061 Mbytes
   Step          Temp          PotEng         TotEng         Press          Volume        Atoms       Density    
         0   3             -4.1241917      0.33414167    -2.2227267      180                  108   0.6          
        50   2.196824      -2.9056637      0.35906085     4.0902344      180                  108   0.6          
       100   2.4296563     -3.2491278      0.36161142     3.0239251      180                  108   0.6          
       150   2.3933594     -3.1973246      0.35947343     2.9220808      180                  108   0.6          
       200   2.3489459     -3.1289633      0.36183139     3.38915        180                  108   0.6          
       250   2.5110637     -3.3703887      0.36133095     2.6457948      180                  108   0.6          
Loop time of 0.00814172 on 4 procs for 250 steps with 108 atoms

Performance: 13265017.266 tau/day, 30706.058 timesteps/s, 3.316 Matom-step/s
98.7% CPU use with 4 MPI tasks x 1 OpenMP threads

MPI task timing breakdown:
Section |  min time  |  avg time  |  max time  |%varavg| %total
---------------------------------------------------------------
Pair    | 0.0019033  | 0.0022198  | 0.0024521  |   0.4 | 27.26
Neigh   | 0.0013637  | 0.0013765  | 0.0013949  |   0.0 | 16.91
Comm    | 0.0038002  | 0.0040531  | 0.0043977  |   0.3 | 49.78
Output  | 8.4261e-05 | 8.5758e-05 | 8.8203e-05 |   0.0 |  1.05
Modify  | 0.00011286 | 0.00012146 | 0.00012844 |   0.0 |  1.49
Other   |            | 0.0002852  |            |       |  3.50

Nlocal:             27 ave          33 max          21 min
Histogram: 1 0 0 0 1 1 0 0 0 1
Nghost:            453 ave         473 max         430 min
Histogram: 1 0 1 0 0 0 0 0 0 2
Neighs:            738 ave         903 max         508 min
Histogram: 1 0 0 0 0 1 0 1 0 1

Total # of neighbors = 2952
Ave neighs/atom = 27.333333
Neighbor list builds = 40
Dangerous builds = 4
unfix           1

velocity        all create 0.0 87287 loop geom

#   args: nevery ntranslate nexchange nvolume box_temp displace max_dlogvolratio seed
fix              2 all gemc 1 ${ntranslate} ${nexchange} ${nvolume} ${temp} ${displace} ${max_dlogvolratio} 29494
fix              2 all gemc 1 10 ${nexchange} ${nvolume} ${temp} ${displace} ${max_dlogvolratio} 29494
fix              2 all gemc 1 10 10 ${nvolume} ${temp} ${displace} ${max_dlogvolratio} 29494
fix              2 all gemc 1 10 10 10 ${temp} ${displace} ${max_dlogvolratio} 29494
fix              2 all gemc 1 10 10 10 1.0 ${displace} ${max_dlogvolratio} 29494
fix              2 all gemc 1 10 10 10 1.0 0.5 ${max_dlogvolratio} 29494
fix              2 all gemc 1 10 10 10 1.0 0.5 0.5 29494

variable        mydensity equal density
fix             3 all ave/time 1 50 50 v_mydensity ave window 20
thermo_style    custom step temp pe etotal press vol atoms density f_3

run             ${nsteps}
run             10000
WARNING: No fixes with time integration, atoms won't move
For more information see https://docs.lammps.org/err0028 (src/verlet.cpp:60)
Generated 0 of 0 mixed pair_coeff terms from geometric mixing rule
0 atoms in group FixGEMC:gemc_exclusion_group:2
Per MPI rank memory allocation (min/avg/max) = 3.066 | 3.069 | 3.071 Mbytes
   Step          Temp          PotEng         TotEng         Press          Volume        Atoms       Density          f_3      
       250   0             -3.3703887     -3.3703887      1.153107       180                  108   0.6            0            
       300   0.069297751   -3.6188169     -3.5148703     -0.028372266    185.68954            107   0.57623064     0.56606012   
       350   0.10201696    -3.8478051     -3.6961965     -0.27849329     178.55761            108   0.60484679     0.57892161   
       400   0.10766662    -4.0045092     -3.8445046     -0.0051019493   170.69116            108   0.63272171     0.5870145    
       450   0.13003013    -4.1388918     -3.9456526     -0.29169277     168.12773            108   0.64236876     0.59738256   
       500   0.13003013    -4.2039475     -4.0089023      0.67226461     157.47148            107   0.67948811     0.60632364   
       550   0.15848423    -4.2076607     -3.9676917     -0.53686466     166.20717            106   0.63775829     0.61531241   
       600   0.14782794    -4.0822092     -3.8562436     -0.28080402     165.76679            105   0.63341998     0.61952779   
       650   0.18386386    -4.1188678     -3.843072      -0.051411814    165.48254            107   0.64659389     0.62152092   
       700   0.20017132    -4.0807538     -3.7776642     -0.40245563     168.50351            106   0.629067       0.62302681   
       750   0.22753038    -4.0392528     -3.6914564     -0.23961299     167.26222            105   0.62775682     0.62360637   
       800   0.23154981    -4.129019      -3.7750786     -0.44316865     165.6993             105   0.633678       0.62360898   
       850   0.24711428    -4.1592686     -3.7779047     -0.31845948     161.32674            104   0.64465445     0.62498244   
       900   0.25156588    -4.3353227     -3.9433196     -0.37290813     156.53263            103   0.65800976     0.62749979   
       950   0.2543297     -4.2812678     -3.8849579      0.040838719    153.38115            103   0.67152971     0.63019453   
      1000   0.26738976    -4.3692141     -3.9484684     -0.34431532     152.2096             102   0.67012858     0.63288456   
      1050   0.28002843    -4.3133283     -3.8726953      0.057995137    154.00009            102   0.66233728     0.63482306   
      1100   0.29686168    -4.2105718     -3.7388263     -0.078449301    155.47012            101   0.64964252     0.63644752   
      1150   0.32504417    -4.3816145     -3.8799838     -0.29909629     154.02954            104   0.67519515     0.63803141   
      1200   0.37900261    -4.4768645     -3.9187919      0.11718584     155.45949            109   0.70114727     0.64083419   
      1250   0.35127444    -4.4428894     -3.9208566      0.70330848     151.82647            108   0.71133841     0.64341192   
      1300   0.34016994    -4.4406392     -3.9351089      0.18999151     155.70504            108   0.69361916     0.64946586   
      1350   0.36975557    -4.3003998     -3.7559432     -0.17995188     162.54692            109   0.6705756      0.65348155   
      1400   0.38202693    -4.1763544     -3.6239641     -0.42070151     171.23934            111   0.64821552     0.65663765   
      1450   0.35970217    -4.3139432     -3.78429        0.082756869    161.76192            109   0.67382979     0.65846372   
      1500   0.37474123    -4.3139641     -3.7671826     -0.1250149      165.44172            110   0.66488671     0.65954115   
      1550   0.36868751    -4.2406498     -3.6977659     -0.38306917     167.59172            109   0.65039012     0.65970125   
      1600   0.36825407    -4.1390427     -3.5917763      0.29689616     163.9745             108   0.65863901     0.65989285   
      1650   0.37980946    -4.1815573     -3.6273807     -0.21949411     168.25804            110   0.65375776     0.66089639   
      1700   0.39972866    -4.322473      -3.7338817      0.18404541     162.57526            109   0.67045873     0.66211271   
      1750   0.40613567    -4.1968331     -3.5876296     -0.15079386     164.35567            107   0.65102714     0.66358262   
      1800   0.44707275    -4.3332175     -3.6808977     -0.31672081     166.71892            110   0.65979312     0.66487173   
      1850   0.47849806    -4.4287096     -3.7305374     -0.37991881     163.32721            110   0.67349466     0.66654359   
      1900   0.48260035    -4.4436595     -3.7330415     -0.35072512     162.03901            109   0.67267752     0.6672971    
      1950   0.44378788    -4.475         -3.7966385     -0.41948934     158.04464            105   0.66436925     0.66789841   
      2000   0.46231168    -4.5150699     -3.8216023      0.44207671     153.12232            107   0.69878775     0.66866595   
      2050   0.4895971     -4.531632      -3.8172653     -0.079716376    159.46984            110   0.6897856      0.66923006   
      2100   0.50550499    -4.4546916     -3.7171139     -0.080465874    160.41749            110   0.68571077     0.67052926   
      2150   0.5642876     -4.4265002     -3.5879061     -0.46139449     163.66173            108   0.65989769     0.6711677    
      2200   0.56903294    -4.4120854     -3.5818146     -0.010196422    161.98146            110   0.67909004     0.67075988   
      2250   0.56617126    -4.3848392     -3.5661861      0.19321257     161.83763            111   0.68587262     0.67005964   
      2300   0.57066051    -4.3489774     -3.5163318     -0.80921882     168.35859            110   0.65336733     0.66951644   
      2350   0.59429502    -4.4552632     -3.5638207     -0.35803142     159.14457            107   0.67234467     0.66974029   
      2400   0.60621186    -4.5268332     -3.6175154      0.35846489     153.08397            107   0.69896279     0.67052381   
      2450   0.68505922    -4.5275958     -3.5280321     -0.0030946642   161.14292            110   0.68262385     0.67135348   
      2500   0.67054911    -4.3793066     -3.4009145     -0.70558626     169.93487            110   0.64730682     0.67182641   
      2550   0.67619711    -4.3527425     -3.374998      -0.41286994     169.04877            111   0.65661523     0.67198562   
      2600   0.6571054     -4.4077394     -3.4489629     -0.14528979     165.06185            110   0.66641688     0.672779     
      2650   0.68050508    -4.4926182     -3.5086447      0.035333695    162.14773            111   0.68456094     0.67427958   
      2700   0.67810385    -4.3857863     -3.4052848     -0.54268294     169.63054            111   0.65436329     0.67506317   
      2750   0.69248799    -4.3817535     -3.3713505     -0.23545537     165.86465            110   0.66319133     0.67553937   
      2800   0.69743904    -4.4346164     -3.4076534      0.58414612     157.7784             109   0.69084235     0.67666055   
      2850   0.67330743    -4.1881921     -3.1589936     -0.46459355     166.55565            105   0.63041994     0.67588369   
      2900   0.72059052    -4.2170327     -3.1559797     -0.2117971      167.36011            109   0.65129019     0.67520053   
      2950   0.66748164    -4.065086      -3.0249811      0.52805927     158.89025            103   0.64824619     0.67380335   
      3000   0.64785736    -3.9176883     -2.867374      -0.20724641     162.15319             99   0.61053379     0.67088236   
      3050   0.68474168    -3.8717992     -2.7836701      0.68533373     159.77559            101   0.63213663     0.6680017    
      3100   0.77144297    -3.9727109     -2.7935052      0.46296289     165.38674            105   0.63487555     0.6645281    
      3150   0.79164021    -3.9193495     -2.7428842      0.55304675     168.39199            108   0.64136066     0.66176457   
      3200   0.81467161    -4.0559184     -2.833911       0.45930322     164.42529            107   0.65075146     0.65999982   
      3250   0.81652041    -4.0776177     -2.8295079     -0.083940415    167.11391            105   0.62831395     0.65773478   
      3300   0.87292371    -4.2104333     -2.9482328      0.88268576     164.15588            111   0.67618655     0.65610911   
      3350   0.8880331     -4.1028537     -2.8188059     -0.039813303    174.978              111   0.63436547     0.65426187   
      3400   0.87154384    -4.1730522     -2.8778412      0.23660195     166.6352             108   0.64812235     0.65180385   
      3450   0.88931571    -4.1231479     -2.8015259      0.17929942     167.38376            108   0.64522387     0.64942052   
      3500   0.90106988    -4.1869228     -2.87218        0.41252067     166.53069            110   0.66053892     0.64824614   
      3550   0.90419745    -4.2091        -2.8897937     -0.14662917     170.26792            110   0.64604066     0.64772055   
      3600   0.87640089    -4.1652442     -2.8628151      0.0056075554   166.01448            108   0.65054567     0.64711492   
      3650   0.85411507    -4.1442643     -2.8630917      0.27709377     163.33092            107   0.65511173     0.64583482   
      3700   0.83349487    -4.3229944     -3.0489379      0.22469414     154.57808            105   0.67926836     0.64518094   
      3750   0.8661308     -4.3182505     -2.9943077      0.35787764     154.00212            105   0.68180878     0.64586366   
      3800   0.8454022     -4.1018126     -2.7844626      0.1765622      158.41723            103   0.65018182     0.64488872   
      3850   0.84389543    -4.1770758     -2.8491815      0.18611838     155.92771            102   0.65414929     0.64442208   
      3900   0.80049084    -4.1098555     -2.785332       0.068398783    153.09157             97   0.63360772     0.64386254   
      3950   0.7917488     -4.1828342     -2.8591292     -0.10504356     151.3219              96   0.63440917     0.64356747   
      4000   0.81218777    -4.2982708     -2.9681061      0.73345961     144.22686             98   0.67948507     0.64530533   
      4050   0.8290047     -4.3894921     -3.0589396      0.30979081     146.8522             100   0.68095679     0.64796965   
      4100   0.8095128     -4.3462561     -3.0469881      0.076295492    148.67677            100   0.67260003     0.65077248   
      4150   0.8025627     -4.3422186     -3.0668591      0.4288089      147.64233            101   0.68408567     0.65318476   
      4200   0.83688599    -4.1947118     -2.9031714      0.32925287     156.52872            104   0.6644148      0.65391305   
      4250   0.8153723     -4.1760072     -2.8929949      0.40884987     154.80746            102   0.65888296     0.65572008   
      4300   0.81910968    -4.1707296     -2.918662       0.24968552     162.0639             105   0.64789257     0.65601547   
      4350   0.84800267    -4.0658024     -2.7817984      0.40612766     163.3332             106   0.64898011     0.65651144   
      4400   0.85491048    -4.1138004     -2.8070087      1.0249445      157.58293            105   0.66631583     0.6572296    
      4450   0.85358257    -4.1215536     -2.8042458      0.59738129     160.77032            104   0.64688558     0.65737452   
      4500   0.87759276    -4.0881064     -2.7592985      0.053435647    166.56692            106   0.63638085     0.65677072   
      4550   0.89016227    -4.1642485     -2.853505      -0.37767901     169.45795            109   0.64322742     0.65662864   
      4600   0.86222271    -4.2859464     -2.9926123      0.11619835     161.39404            107   0.66297368     0.65735785   
      4650   0.88228334    -4.5674701     -3.2562991      0.6698683      152.09035            108   0.71010421     0.65829788   
      4700   0.88761529    -4.4369546     -3.1055317     -0.12080718     159.25957            107   0.67185914     0.65904102   
      4750   0.87335307    -4.4097573     -3.1118576      0.36150293     158.05731            108   0.68329646     0.65879883   
      4800   0.89473277    -4.2492575     -2.9195852      0.078381668    165.37914            108   0.65304489     0.65949951   
      4850   0.89949044    -4.3729325     -3.0236968      0.20583137     159.34232            107   0.67151024     0.66066131   
      4900   0.87901341    -4.207959      -2.8643242     -0.11848826     161.99542            105   0.64816648     0.66169814   
      4950   0.8824384     -4.2752855     -2.9264153      0.48970052     156.27723            105   0.67188289     0.66274123   
      5000   0.91974885    -4.2721382     -2.9052892     -0.78462406     169.55925            108   0.63694547     0.66326359   
      5050   0.91855961    -4.5046854     -3.126846      -0.090121871    156.30205            107   0.68457197     0.66396569   
      5100   0.87906863    -4.4389773     -3.0952581      0.38114202     153.09603            105   0.68584402     0.66468675   
      5150   0.87802478    -4.6746021     -3.3195735      0.25428566     145.66479            104   0.71396799     0.66595012   
      5200   0.88496225    -4.6444493     -3.2917213      0.1290354      147.59976            105   0.71138326     0.66863091   
      5250   0.86503106    -4.287047      -2.9258951     -0.18989981     156.27607            102   0.6526911      0.66949045   
      5300   0.86525562    -4.3932839     -3.0317787      0.44367239     149.81249            102   0.68085109     0.67047259   
      5350   0.84915353    -4.3272747     -2.9643832      0.44213077     148.40982            100   0.67380986     0.6717677    
      5400   0.84120003    -4.2567589     -2.9200004      0.57139155     149.83271            101   0.67408513     0.67295557   
      5450   0.85002304    -4.2273449     -2.9027945      0.020305201    157.43637            103   0.65423258     0.67424868   
      5500   0.85220462    -4.1852487     -2.8572987      0.44905802     155.92452            103   0.66057605     0.6755372    
      5550   0.85220462    -4.1730713     -2.8451214      0.41079771     155.46084            103   0.66254626     0.67538764   
      5600   0.85610915    -4.2559782     -2.9473542      0.50057375     156.25805            105   0.67196537     0.67461304   
      5650   0.89316866    -4.3507971     -3.0110441      0.21435344     157.83576            107   0.67791986     0.67446828   
      5700   0.90729929    -4.3145516     -2.966204       0.23488598     161.25731            108   0.66973708     0.6744846    
      5750   0.90945918    -4.1838744     -2.8196856     -0.50292926     167.72386            107   0.63795337     0.67392349   
      5800   0.87919847    -4.175787      -2.818947       0.65679648     156.66386            104   0.66384169     0.67323078   
      5850   0.90578668    -4.2503188     -2.8788211     -0.056910036    162.13911            106   0.65375959     0.67253438   
      5900   0.95169502    -4.2944617     -2.8801372      0.26797311     160.28386            108   0.67380459     0.67225323   
      5950   0.91959554    -4.2123586     -2.7931751      0.34505621     157.93186            104   0.65851183     0.67248242   
      6000   0.92760975    -4.4056079     -2.9740564      0.60636485     151.0461             104   0.68853153     0.67202835   
      6050   0.90420537    -4.3543327     -2.9589004      1.117001       149.46968            104   0.69579331     0.67151183   
      6100   0.92319543    -4.4015452     -3.003688       0.11192677     156.721              106   0.67636119     0.67101353   
      6150   0.91848574    -4.2429361     -2.8652075      0.019920232    163.34349            107   0.65506132     0.66954387   
      6200   0.9182096     -4.3617132     -2.9714053      0.71020966     155.64108            106   0.68105412     0.66676076   
      6250   0.95001071    -4.4059678     -3.0070988      0.11869681     161.60429            109   0.67448703     0.66613367   
      6300   0.93077325    -4.4192        -3.0611172      0.16696009     161.16876            110   0.6825144      0.6670062    
      6350   0.92416663    -4.4998403     -3.1513972     -0.12883251     160.3512             110   0.68599425     0.66770829   
      6400   0.92416663    -4.4776019     -3.1291588     -0.060565997    160.71442            110   0.68444389     0.66884462   
      6450   0.89187754    -4.3949829     -3.0571666      0.12419433     158.31106            107   0.67588455     0.67014485   
      6500   0.92975997    -4.2606331     -2.8915829      0.50922434     164.14713            109   0.66403842     0.66982761   
      6550   0.9208553     -4.3769494     -3.0084561      0.074905314    159.99675            108   0.67501371     0.67028487   
      6600   0.93754853    -4.1600889     -2.7667877      0.64172114     162.4401             108   0.66486046     0.67102395   
      6650   0.90977572    -4.1616144     -2.7709572      0.4709987      161.59419            105   0.64977584     0.66943852   
      6700   0.92739886    -4.1298549     -2.7516372      0.036911959    167.75766            108   0.6437858      0.66788095   
      6750   0.92439827    -4.2031961     -2.7766007      0.23989847     160.81993            104   0.64668601     0.66677248   
      6800   0.94446993    -4.2351441     -2.8050741      0.49222153     160.87135            106   0.65891162     0.66672154   
      6850   0.93418142    -4.3116449     -2.9485893      0.032215266    164.78376            110   0.66754153     0.6667085    
      6900   0.94431871    -4.3854665     -3.0076196     -0.034387472    164.38401            110   0.66916483     0.66749845   
      6950   0.95174088    -4.3963494     -3.0201835     -0.042694717    163.94681            111   0.67704884     0.66830211   
      7000   0.9206555     -4.2900849     -2.9218885      0.81299158     158.36725            108   0.68195916     0.66870872   
      7050   0.93938391    -4.1217859     -2.7511394      0.077415052    170.19328            110   0.646324       0.66778793   
      7100   0.88915499    -4.0589874     -2.6998505      0.11123284     169.23814            105   0.62042751     0.66572898   
      7150   0.9305538     -4.1471924     -2.7513617      0.17602375     166.48522            107   0.64269968     0.66415385   
      7200   0.9540189     -4.1320454     -2.7142673      0.23652697     166.57275            108   0.64836535     0.66303643   
      7250   0.9222996     -4.1802224     -2.7704216      0.36108284     159.55216            105   0.658092       0.66200542   
      7300   0.94952255    -4.2250865     -2.8008027      0.27370024     164.58363            107   0.6501254      0.66006209   
      7350   0.9830246     -4.2585833     -2.7976995      0.64597255     159.34807            108   0.67776159     0.65864394   
      7400   0.98479044    -4.2572083     -2.7937003      0.35968175     164.19904            108   0.65773833     0.65681887   
      7450   0.99870656    -4.3494971     -2.9054214     -0.11955249     166.12173            111   0.66818472     0.65573691   
      7500   1.0011556     -4.2963473     -2.8355703     -0.16171352     168.70361            110   0.65203108     0.65635401   
      7550   0.98203594    -4.2964701     -2.8635904      0.98857843     160.34328            110   0.68602812     0.65665781   
      7600   0.96054471    -4.0848069     -2.6573307     -0.2045535      171.6329             108   0.62925        0.6560156    
      7650   0.95117717    -4.2286759     -2.815121       0.26196805     165.13232            108   0.65402096     0.65621118   
      7700   0.96593164    -4.0894386     -2.6539569      0.14761272     170.62025            108   0.63298465     0.65601586   
      7750   0.93518403    -4.1042169     -2.7144295      0.26747043     168.23406            108   0.64196276     0.65543394   
      7800   0.91035839    -4.1711558     -2.7927358      0.17826327     165.00038            106   0.64242277     0.65453231   
      7850   0.9046052     -4.0620198     -2.6792662      0.33143297     162.60643            105   0.64573092     0.65369318   
      7900   0.90896719    -3.9137264     -2.5109453      0.055629086    171.14332            104   0.60767784     0.65082476   
      7950   0.94911182    -4.0125326     -2.5617473      0.49420082     164.68536            105   0.63757944     0.64760512   
      8000   0.95442266    -4.1198339     -2.6609307      0.22289733     163.5522             105   0.64199686     0.64582512   
      8050   0.92513373    -4.1157968     -2.6880664     -0.27400233     166.71892            104   0.62380441     0.64523827   
      8100   0.92063587    -4.0280271     -2.6340454     -0.08182615     167.2392             106   0.63382269     0.64568289   
      8150   0.90759545    -4.0946711     -2.7073466      0.29413433     162.99175            105   0.64420439     0.64592479   
      8200   0.9024437     -4.0598106     -2.680361       0.48758259     162.18271            105   0.64741797     0.64635616   
      8250   0.89607563    -4.1089015     -2.7391859      0.31878238     161.68092            105   0.64942728     0.64594445   
      8300   0.8391894     -4.2318353     -2.898272       0.13281223     153.78067            101   0.65677954     0.64689625   
      8350   0.84312532    -4.1492176     -2.8093997      0.13283265     155.96592            101   0.64757735     0.647093     
      8400   0.85147156    -4.172041      -2.81896       -0.24493203     158.70066            101   0.63641829     0.64675023   
      8450   0.86103763    -4.2428482     -2.8879802      0.082800475    154.73881            102   0.65917531     0.64683868   
      8500   0.85693098    -4.217814      -2.8694079      1.0019988      149.33404            102   0.68303249     0.64654602   
      8550   0.85653346    -4.1653904     -2.830695      -0.79093111     163.29668            103   0.6307538      0.64672463   
      8600   0.85256448    -4.0968179     -2.7683072      0.18742603     157.89278            103   0.65234143     0.64714337   
      8650   0.83707336    -4.0601227     -2.7429632      0.68057816     156.52147            102   0.65166779     0.64641715   
      8700   0.85093507    -3.9647805     -2.5852342      0.2093058      155.80174             99   0.63542294     0.64553048   
      8750   0.82813831    -4.1369684     -2.7378505      0.54926802     145.32755             95   0.65369572     0.64592148   
      8800   0.77488862    -4.2241227     -2.9286058      0.20659696     146.136               96   0.65692234     0.64666837   
      8850   0.76181455    -4.245057      -2.9442992      0.016834356    146.1484              94   0.64318186     0.64708208   
      8900   0.80301559    -4.2527503     -2.9766711      0.36698915     152.96698            101   0.66027324     0.64886049   
      8950   0.78084474    -4.0732492     -2.8073343      0.00081939589  158.15766             99   0.62595768     0.64996666   
      9000   0.77432002    -3.9900207     -2.7472371      0.37374675     158.34529            100   0.63153127     0.64904975   
      9050   0.79031803    -3.965275      -2.73376        0.46792816     161.68032            103   0.63705961     0.64878605   
      9100   0.78999216    -4.0273531     -2.8197936     -0.16906772     165.99209            105   0.63256028     0.64798814   
      9150   0.82917597    -4.1797586     -2.9699155     -0.32675487     170.28346            110   0.64598172     0.6480432    
      9200   0.85300706    -4.2764045     -3.0203711      0.43645433     161.6565             109   0.67426921     0.64877518   
      9250   0.85952212    -4.2363934     -2.9707668     -0.032740311    165.49033            109   0.65864877     0.6495049    
      9300   0.87824895    -4.3343937     -3.0529486     -0.32701411     165.59403            110   0.66427515     0.64958722   
      9350   0.87306397    -4.24819       -2.9626234      0.5260543      161.66942            109   0.67421531     0.6499151    
      9400   0.88484122    -4.22023       -2.9173216     -0.3002715      170.25613            109   0.64021189     0.65002846   
      9450   0.92441368    -4.2609652     -2.924313       0.0011663352   167.38376            111   0.66314676     0.64961883   
      9500   0.89145552    -4.0527254     -2.7400776     -0.31498158     175.89839            109   0.61967595     0.6487989    
      9550   0.88550141    -4.070572      -2.7666915     -0.26933532     173.53767            109   0.62810569     0.64679752   
      9600   0.91493291    -4.0722927     -2.7126008      0.15693291     171.75976            108   0.62878521     0.64565514   
      9650   0.90726226    -4.0586752     -2.7103826      0.020561365    171.81703            108   0.62857563     0.64557046   
      9700   0.94396988    -3.8238523     -2.4589228     -0.69700248     192.07813            111   0.57788984     0.64561327   
      9750   0.94913486    -3.887548      -2.5026739      0.20510928     181.44213            110   0.6062539      0.64405246   
      9800   0.92496138    -3.8879582     -2.550514      -0.31425096     185.64936            111   0.59790135     0.64173522   
      9850   0.90560184    -3.7972729     -2.4388702      0.31906787     180.60055            107   0.59246775     0.63932188   
      9900   0.96481677    -3.8268344     -2.3930095      0.44961572     178.93504            108   0.60357099     0.63635078   
      9950   1.0066389     -3.8928083     -2.4105556      0.51523924     176.66529            109   0.61698595     0.6337191    
     10000   0.98022008    -3.9294069     -2.4860553      0.38047483     176.27747            109   0.61834336     0.6330045    
     10050   1.0132929     -3.8929968     -2.4145103      0.32360627     179.39551            110   0.61317032     0.63136163   
     10100   1.0332321     -3.9529754     -2.4453959     -0.072142871    183.92372            110   0.59807402     0.63005468   
     10150   1.0166275     -3.6840652     -2.1591239     -0.0060395002   188.41956            107   0.5678816      0.62733824   
     10200   1.0541258     -3.6338708     -2.0816948      0.69026247     188.63207            109   0.57784447     0.62275604   
     10250   1.0366147     -3.8242904     -2.2837658     -0.0092135943   191.18667            108   0.56489294     0.61830901   
Loop time of 55.7074 on 4 procs for 10000 steps with 108 atoms

Performance: 77548.026 tau/day, 179.509 timesteps/s, 19.387 katom-step/s
98.7% CPU use with 4 MPI tasks x 1 OpenMP threads

MPI task timing breakdown:
Section |  min time  |  avg time  |  max time  |%varavg| %total
---------------------------------------------------------------
Pair    | 0.1855     | 0.19789    | 0.21266    |   2.2 |  0.36
Neigh   | 0.63717    | 0.64856    | 0.67064    |   1.6 |  1.16
Comm    | 0.43993    | 0.48225    | 0.50352    |   3.7 |  0.87
Output  | 0.0041602  | 0.0044206  | 0.005028   |   0.5 |  0.01
Modify  | 54.327     | 54.335     | 54.341     |   0.1 | 97.54
Other   |            | 0.03903    |            |       |  0.07

Nlocal:             27 ave          33 max          21 min
Histogram: 1 0 0 0 1 1 0 0 0 1
Nghost:          424.5 ave         442 max         402 min
Histogram: 1 0 0 1 0 0 0 0 1 1
Neighs:         699.25 ave         857 max         483 min
Histogram: 1 0 0 0 0 0 2 0 0 1

Total # of neighbors = 2797
Ave neighs/atom = 25.898148
Neighbor list builds = 490799
Dangerous builds = 0
Total wall time: 0:00:55
