LAMMPS (30 Mar 2026 - Development - patch_30Mar2026-388-g36190e700a)
OMP_NUM_THREADS environment is not set. Defaulting to 1 thread.
  using 1 OpenMP thread(s) per MPI task
# Test correctness GCMC restart
# Restart should exactly reproduce original simulation

### LJ ###

variable        mu equal -1.25
variable        temp equal 2.0
variable        disp equal 1.0
variable        lbox equal 5.0
variable        nequil equal 100
variable        nsteps equal 1000
variable        restartfile string restart.gcmc.lj

# global model settings

units           lj
atom_style      atomic
pair_style      lj/cut 3.0
pair_modify     tail no # turn of to avoid triggering full_energy

# box and other settings

region          box block 0 ${lbox} 0 ${lbox} 0 ${lbox}
region          box block 0 5 0 ${lbox} 0 ${lbox}
region          box block 0 5 0 5 0 ${lbox}
region          box block 0 5 0 5 0 5
create_box      1 box
Created orthogonal box = (0 0 0) to (5 5 5)
  1 by 1 by 1 MPI processor grid
group           gcmcgroup type 1
0 atoms in group gcmcgroup
pair_coeff      * * 1.0 1.0
mass            * 1.0

# gcmc

fix             mygcmc gcmcgroup gcmc 1 100 100 1 29494 ${temp} ${mu} ${disp}
fix             mygcmc gcmcgroup gcmc 1 100 100 1 29494 2 ${mu} ${disp}
fix             mygcmc gcmcgroup gcmc 1 100 100 1 29494 2 -1.25 ${disp}
fix             mygcmc gcmcgroup gcmc 1 100 100 1 29494 2 -1.25 1

# output

compute_modify  thermo_temp dynamic/dof yes
thermo_style    custom step temp press pe ke density atoms

# run equilibration and write restart

run             ${nequil}
run             100
WARNING: No fixes with time integration, atoms won't move
For more information see https://docs.lammps.org/err0028 (src/verlet.cpp:60)
Generated 0 of 0 mixed pair_coeff terms from geometric mixing rule
Neighbor list info ...
  update: every = 1 steps, delay = 0 steps, check = yes
  max neighbors/atom: 2000, page size: 100000
  master list distance cutoff = 3.3
  ghost atom cutoff = 3.3
  binsize = 1.65, bins = 4 4 4
  1 neighbor lists, perpetual/occasional/extra = 1 0 0
  (1) pair lj/cut, perpetual
      attributes: half, newton on
      pair build: half/bin/atomonly/newton
      stencil: half/bin/3d
      bin: standard
Per MPI rank memory allocation (min/avg/max) = 0.4341 | 0.4341 | 0.4341 Mbytes
   Step          Temp          Press          PotEng         KinEng        Density        Atoms   
         0   0              0              0             -0              0                      0 
       100   2.0073546      0.60923915    -3.1356723      2.9632377      0.504                 63 
Loop time of 0.12651 on 1 procs for 100 steps with 63 atoms

Performance: 341475.058 tau/day, 790.452 timesteps/s, 49.798 katom-step/s
98.9% CPU use with 1 MPI tasks x 1 OpenMP threads

MPI task timing breakdown:
Section |  min time  |  avg time  |  max time  |%varavg| %total
---------------------------------------------------------------
Pair    | 0.0027929  | 0.0027929  | 0.0027929  |   0.0 |  2.21
Neigh   | 0.0084704  | 0.0084704  | 0.0084704  |   0.0 |  6.70
Comm    | 0.00080533 | 0.00080533 | 0.00080533 |   0.0 |  0.64
Output  | 1.9559e-05 | 1.9559e-05 | 1.9559e-05 |   0.0 |  0.02
Modify  | 0.11431    | 0.11431    | 0.11431    |   0.0 | 90.35
Other   |            | 0.0001155  |            |       |  0.09

Nlocal:             63 ave          63 max          63 min
Histogram: 1 0 0 0 0 0 0 0 0 0
Nghost:            727 ave         727 max         727 min
Histogram: 1 0 0 0 0 0 0 0 0 0
Neighs:           2342 ave        2342 max        2342 min
Histogram: 1 0 0 0 0 0 0 0 0 0

Total # of neighbors = 2342
Ave neighs/atom = 37.174603
Neighbor list builds = 100
Dangerous builds = 0
write_restart   ${restartfile}
write_restart   restart.gcmc.lj
System init for write_restart ...
Generated 0 of 0 mixed pair_coeff terms from geometric mixing rule

# run simulation, store reference values, and clear simulation

run             ${nsteps}
run             1000
WARNING: No fixes with time integration, atoms won't move
For more information see https://docs.lammps.org/err0028 (src/verlet.cpp:60)
Generated 0 of 0 mixed pair_coeff terms from geometric mixing rule
Per MPI rank memory allocation (min/avg/max) = 3.149 | 3.149 | 3.149 Mbytes
   Step          Temp          Press          PotEng         KinEng        Density        Atoms   
       100   2.0073546      0.60923915    -3.1356723      2.9632377      0.504                 63 
      1100   1.9185225      0.96901528    -3.2283467      2.8348317      0.536                 67 
Loop time of 1.29612 on 1 procs for 1000 steps with 67 atoms

Performance: 333302.596 tau/day, 771.534 timesteps/s, 51.693 katom-step/s
99.5% CPU use with 1 MPI tasks x 1 OpenMP threads

MPI task timing breakdown:
Section |  min time  |  avg time  |  max time  |%varavg| %total
---------------------------------------------------------------
Pair    | 0.029676   | 0.029676   | 0.029676   |   0.0 |  2.29
Neigh   | 0.087681   | 0.087681   | 0.087681   |   0.0 |  6.76
Comm    | 0.0081053  | 0.0081053  | 0.0081053  |   0.0 |  0.63
Output  | 2.1409e-05 | 2.1409e-05 | 2.1409e-05 |   0.0 |  0.00
Modify  | 1.1694     | 1.1694     | 1.1694     |   0.0 | 90.22
Other   |            | 0.001215   |            |       |  0.09

Nlocal:             67 ave          67 max          67 min
Histogram: 1 0 0 0 0 0 0 0 0 0
Nghost:            797 ave         797 max         797 min
Histogram: 1 0 0 0 0 0 0 0 0 0
Neighs:           2687 ave        2687 max        2687 min
Histogram: 1 0 0 0 0 0 0 0 0 0

Total # of neighbors = 2687
Ave neighs/atom = 40.104478
Neighbor list builds = 1000
Dangerous builds = 0
variable        tmp equal temp
variable        tref equal ${tmp}
variable        tref equal 1.91852248323097
variable        tmp equal press
variable        pref equal ${tmp}
variable        pref equal 0.96901527697847
variable        tmp equal sum(f_mygcmc)
variable        gcmcref equal ${tmp}
variable        gcmcref equal 240158
clear
OMP_NUM_THREADS environment is not set. Defaulting to 1 thread.
  using 1 OpenMP thread(s) per MPI task

# rerun simulation from restart

read_restart    ${restartfile}
read_restart    restart.gcmc.lj
Reading restart file ...
  restart file = 30 Mar 2026, LAMMPS = 30 Mar 2026
  restoring atom style atomic from restart
  orthogonal box = (0 0 0) to (5 5 5)
  1 by 1 by 1 MPI processor grid
  restoring pair style lj/cut from restart
  63 atoms
  read_restart CPU = 0.001 seconds

# gcmc

fix             mygcmc gcmcgroup gcmc 1 100 100 1 29494 ${temp} ${mu} ${disp}
fix             mygcmc gcmcgroup gcmc 1 100 100 1 29494 2 ${mu} ${disp}
fix             mygcmc gcmcgroup gcmc 1 100 100 1 29494 2 -1.25 ${disp}
fix             mygcmc gcmcgroup gcmc 1 100 100 1 29494 2 -1.25 1
Resetting global fix info from restart file:
  fix style: gcmc, fix ID: mygcmc

# output

compute_modify  thermo_temp dynamic/dof yes
thermo_style    custom step temp press pe ke density atoms

# rerun simulation from restart, measure errors, and clear

run             ${nsteps}
run             1000
WARNING: No fixes with time integration, atoms won't move
For more information see https://docs.lammps.org/err0028 (src/verlet.cpp:60)
Generated 0 of 0 mixed pair_coeff terms from geometric mixing rule
All restart file global fix info was re-assigned
Neighbor list info ...
  update: every = 1 steps, delay = 0 steps, check = yes
  max neighbors/atom: 2000, page size: 100000
  master list distance cutoff = 3.3
  ghost atom cutoff = 3.3
  binsize = 1.65, bins = 4 4 4
  1 neighbor lists, perpetual/occasional/extra = 1 0 0
  (1) pair lj/cut, perpetual
      attributes: half, newton on
      pair build: half/bin/atomonly/newton
      stencil: half/bin/3d
      bin: standard
Per MPI rank memory allocation (min/avg/max) = 3.083 | 3.083 | 3.083 Mbytes
   Step          Temp          Press          PotEng         KinEng        Density        Atoms   
       100   2.0073546      0.60923915    -3.1356723      2.9632377      0.504                 63 
      1100   1.9185225      0.96901528    -3.2283467      2.8348317      0.536                 67 
Loop time of 1.28799 on 1 procs for 1000 steps with 67 atoms

Performance: 335405.952 tau/day, 776.403 timesteps/s, 52.019 katom-step/s
100.0% CPU use with 1 MPI tasks x 1 OpenMP threads

MPI task timing breakdown:
Section |  min time  |  avg time  |  max time  |%varavg| %total
---------------------------------------------------------------
Pair    | 0.030683   | 0.030683   | 0.030683   |   0.0 |  2.38
Neigh   | 0.083053   | 0.083053   | 0.083053   |   0.0 |  6.45
Comm    | 0.0076221  | 0.0076221  | 0.0076221  |   0.0 |  0.59
Output  | 1.9807e-05 | 1.9807e-05 | 1.9807e-05 |   0.0 |  0.00
Modify  | 1.1654     | 1.1654     | 1.1654     |   0.0 | 90.48
Other   |            | 0.00118    |            |       |  0.09

Nlocal:             67 ave          67 max          67 min
Histogram: 1 0 0 0 0 0 0 0 0 0
Nghost:            797 ave         797 max         797 min
Histogram: 1 0 0 0 0 0 0 0 0 0
Neighs:           2687 ave        2687 max        2687 min
Histogram: 1 0 0 0 0 0 0 0 0 0

Total # of neighbors = 2687
Ave neighs/atom = 40.104478
Neighbor list builds = 1000
Dangerous builds = 0
variable        tmp equal temp
variable        terror equal ${tmp} - v_tref
variable        terror equal 1.91852248323097 - v_tref
variable        tmp equal press
variable        perror equal ${tmp} - v_pref
variable        perror equal 0.96901527697847 - v_pref
variable        tmp equal sum(f_mygcmc)
variable        gcmcerror equal ${tmp} - v_gcmcref
variable        gcmcerror equal 240158 - v_gcmcref
clear
OMP_NUM_THREADS environment is not set. Defaulting to 1 thread.
  using 1 OpenMP thread(s) per MPI task

# report restart errors

print "LJ: change in temperature from restart = ${terror} "
LJ: change in temperature from restart = 0 
print "LJ: change in pressure from restart = ${perror} "
LJ: change in pressure from restart = 0 
print "LJ: change in fix GCMC from restart = ${gcmcerror} "
LJ: change in fix GCMC from restart = 0 

#### H2O ###

variable        mu equal -8.1
variable	disp equal 0.5
variable        temp equal 338.0
variable        lbox equal 10.0
variable        spacing equal 5.0
variable        nequil equal 100
variable        nsteps equal 100
variable        nevery equal 10
variable        restartfile string restart.gcmc.h2o

# global model settings

units           real
atom_style      full
boundary        p p p
pair_style      lj/cut/coul/long  14
pair_modify     mix arithmetic tail yes
kspace_style    ewald 0.0001
bond_style      harmonic
angle_style     harmonic

# box, start molecules on simple cubic lattice

lattice 	sc ${spacing}
lattice 	sc 5
Lattice spacing in x,y,z = 5 5 5
region          box block 0 ${lbox} 0 ${lbox} 0 ${lbox} units box
region          box block 0 10 0 ${lbox} 0 ${lbox} units box
region          box block 0 10 0 10 0 ${lbox} units box
region          box block 0 10 0 10 0 10 units box
create_box      2 box                                       bond/types 1                                angle/types 1                               extra/bond/per/atom 2                       extra/angle/per/atom 1                      extra/special/per/atom 2
Created orthogonal box = (0 0 0) to (10 10 10)
  1 by 1 by 1 MPI processor grid

molecule        h2omol H2O.txt
Read molecule template h2omol:
# Water molecule. SPC/E model.
  1 molecules
  0 fragments
  0 bodies
  3 atoms with max type 2
  2 bonds with max type 1
  1 angles with max type 1
  0 dihedrals with max type 0
  0 impropers with max type 0
create_atoms   	0 box mol h2omol 464563 units box
Created 24 atoms
  using box units in orthogonal box = (0 0 0) to (10 10 10)
  create_atoms CPU = 0.001 seconds

# rigid SPC/E water model

pair_coeff      1 1 0.15535 3.166
pair_coeff      * 2 0.0000 0.0000

bond_coeff      1     1000       1.0
angle_coeff     1      100       109.47

# masses

mass 1 15.9994
mass 2 1.0

# MD settings

group           h2o type 1 2
24 atoms in group h2o
neighbor        2.0 bin
neigh_modify    every 1 delay 1 check yes
velocity       	all create ${temp} 54654
velocity       	all create 338 54654
timestep        1.0

# rigid constraints with thermostat

fix             mynvt h2o nvt temp ${temp} ${temp} 100
fix             mynvt h2o nvt temp 338 ${temp} 100
fix             mynvt h2o nvt temp 338 338 100
fix             wshake h2o shake 0.0001 50 0 b 1 a 1 mol h2omol
Finding SHAKE clusters ...
       0 = # of size 2 clusters
       0 = # of size 3 clusters
       0 = # of size 4 clusters
       8 = # of frozen angles
  find clusters CPU = 0.000 seconds

# important to make temperature dofs dynamic

compute_modify  thermo_temp dynamic/dof yes
compute_modify  mynvt_temp dynamic/dof yes

# output

thermo_style    custom step temp press pe ke density atoms

# gcmc

variable        tfac equal 5.0/3.0 # (3 trans + 2 rot)/(3 trans)
fix             mygcmc h2o gcmc ${nevery} 100 0 0 54341 ${temp} ${mu} ${disp} mol                 h2omol tfac_insert ${tfac} group h2o shake wshake
fix             mygcmc h2o gcmc 10 100 0 0 54341 ${temp} ${mu} ${disp} mol                 h2omol tfac_insert ${tfac} group h2o shake wshake
fix             mygcmc h2o gcmc 10 100 0 0 54341 338 ${mu} ${disp} mol                 h2omol tfac_insert ${tfac} group h2o shake wshake
fix             mygcmc h2o gcmc 10 100 0 0 54341 338 -8.1 ${disp} mol                 h2omol tfac_insert ${tfac} group h2o shake wshake
fix             mygcmc h2o gcmc 10 100 0 0 54341 338 -8.1 0.5 mol                 h2omol tfac_insert ${tfac} group h2o shake wshake
fix             mygcmc h2o gcmc 10 100 0 0 54341 338 -8.1 0.5 mol                 h2omol tfac_insert 1.66666666666667 group h2o shake wshake

# run equilibration and write restart

run             ${nequil}
run             100
Ewald initialization ...
  using 12-bit tables for long-range coulomb
  G vector (1/distance) = 0.17044845
  estimated absolute RMS force accuracy = 0.033206374
  estimated relative force accuracy = 0.00010000001
  KSpace vectors: actual max1d max3d = 16 2 62
                  kxmax kymax kzmax  = 2 2 2
Generated 0 of 1 mixed pair_coeff terms from arithmetic mixing rule
WARNING: Fix gcmc using full_energy option (src/MC/fix_gcmc.cpp:545)
0 atoms in group FixGCMC:gcmc_exclusion_group:mygcmc
0 atoms in group FixGCMC:rotation_gas_atoms:mygcmc
WARNING: Neighbor exclusions used with KSpace solver may give inconsistent Coulombic energies (src/neighbor.cpp:659)
Neighbor list info ...
  update: every = 1 steps, delay = 1 steps, check = yes
  max neighbors/atom: 2000, page size: 100000
  master list distance cutoff = 16
  ghost atom cutoff = 16
  binsize = 8, bins = 2 2 2
  1 neighbor lists, perpetual/occasional/extra = 1 0 0
  (1) pair lj/cut/coul/long, perpetual
      attributes: half, newton on
      pair build: half/bin/newton
      stencil: half/bin/3d
      bin: standard
Per MPI rank memory allocation (min/avg/max) = 11.63 | 11.63 | 11.63 Mbytes
   Step          Temp          Press          PotEng         KinEng        Density        Atoms   
         0   518.26667      1859.8567     -4.1890526      23.172817      0.23910963            24 
WARNING: Using kspace solver on system with no charge (src/kspace.cpp:314)
       100   453.61712     -1229.2128     -135.9171       55.438006      0.62766279            63 
Loop time of 1.52023 on 1 procs for 100 steps with 63 atoms

Performance: 5.683 ns/day, 4.223 hours/ns, 65.779 timesteps/s, 4.144 katom-step/s
99.8% CPU use with 1 MPI tasks x 1 OpenMP threads

MPI task timing breakdown:
Section |  min time  |  avg time  |  max time  |%varavg| %total
---------------------------------------------------------------
Pair    | 0.031868   | 0.031868   | 0.031868   |   0.0 |  2.10
Bond    | 0.00013815 | 0.00013815 | 0.00013815 |   0.0 |  0.01
Kspace  | 0.0008998  | 0.0008998  | 0.0008998  |   0.0 |  0.06
Neigh   | 0.0088652  | 0.0088652  | 0.0088652  |   0.0 |  0.58
Comm    | 0.0013814  | 0.0013814  | 0.0013814  |   0.0 |  0.09
Output  | 1.9485e-05 | 1.9485e-05 | 1.9485e-05 |   0.0 |  0.00
Modify  | 1.4768     | 1.4768     | 1.4768     |   0.0 | 97.15
Other   |            | 0.0002149  |            |       |  0.01

Nlocal:             63 ave          63 max          63 min
Histogram: 1 0 0 0 0 0 0 0 0 0
Nghost:           4797 ave        4797 max        4797 min
Histogram: 1 0 0 0 0 0 0 0 0 0
Neighs:          33976 ave       33976 max       33976 min
Histogram: 1 0 0 0 0 0 0 0 0 0

Total # of neighbors = 33976
Ave neighs/atom = 539.30159
Ave special neighs/atom = 2
Neighbor list builds = 995
Dangerous builds = 0
write_restart   ${restartfile}
write_restart   restart.gcmc.h2o
System init for write_restart ...
Ewald initialization ...
  using 12-bit tables for long-range coulomb
  G vector (1/distance) = 0.17752356
  estimated absolute RMS force accuracy = 0.03320641
  estimated relative force accuracy = 0.00010000012
  KSpace vectors: actual max1d max3d = 16 2 62
                  kxmax kymax kzmax  = 2 2 2
Generated 0 of 1 mixed pair_coeff terms from arithmetic mixing rule
0 atoms in group FixGCMC:rotation_gas_atoms:mygcmc
WARNING: Neighbor exclusions used with KSpace solver may give inconsistent Coulombic energies (src/neighbor.cpp:659)

# run simulation, store reference values, and clear simulation

run             ${nsteps}
run             100
Ewald initialization ...
  using 12-bit tables for long-range coulomb
  G vector (1/distance) = 0.17752356
  estimated absolute RMS force accuracy = 0.03320641
  estimated relative force accuracy = 0.00010000012
  KSpace vectors: actual max1d max3d = 16 2 62
                  kxmax kymax kzmax  = 2 2 2
Generated 0 of 1 mixed pair_coeff terms from arithmetic mixing rule
0 atoms in group FixGCMC:rotation_gas_atoms:mygcmc
WARNING: Neighbor exclusions used with KSpace solver may give inconsistent Coulombic energies (src/neighbor.cpp:659)
Per MPI rank memory allocation (min/avg/max) = 12.12 | 12.12 | 12.12 Mbytes
   Step          Temp          Press          PotEng         KinEng        Density        Atoms   
       100   453.61712     -1139.0475     -135.57728      55.438006      0.62766279            63 
       200   514.09608      531.04166     -223.32493      81.218407      0.80699501            81 
Loop time of 3.12484 on 1 procs for 100 steps with 81 atoms

Performance: 2.765 ns/day, 8.680 hours/ns, 32.002 timesteps/s, 2.592 katom-step/s
99.7% CPU use with 1 MPI tasks x 1 OpenMP threads

MPI task timing breakdown:
Section |  min time  |  avg time  |  max time  |%varavg| %total
---------------------------------------------------------------
Pair    | 0.064842   | 0.064842   | 0.064842   |   0.0 |  2.08
Bond    | 0.00017998 | 0.00017998 | 0.00017998 |   0.0 |  0.01
Kspace  | 0.0012624  | 0.0012624  | 0.0012624  |   0.0 |  0.04
Neigh   | 0.017094   | 0.017094   | 0.017094   |   0.0 |  0.55
Comm    | 0.0022622  | 0.0022622  | 0.0022622  |   0.0 |  0.07
Output  | 1.7143e-05 | 1.7143e-05 | 1.7143e-05 |   0.0 |  0.00
Modify  | 3.0389     | 3.0389     | 3.0389     |   0.0 | 97.25
Other   |            | 0.0003262  |            |       |  0.01

Nlocal:             81 ave          81 max          81 min
Histogram: 1 0 0 0 0 0 0 0 0 0
Nghost:           6019 ave        6019 max        6019 min
Histogram: 1 0 0 0 0 0 0 0 0 0
Neighs:          56176 ave       56176 max       56176 min
Histogram: 1 0 0 0 0 0 0 0 0 0

Total # of neighbors = 56176
Ave neighs/atom = 693.53086
Ave special neighs/atom = 2
Neighbor list builds = 1020
Dangerous builds = 0
variable        tmp equal temp
variable        tref equal ${tmp}
variable        tref equal 514.096081246052
variable        tmp equal press
variable        pref equal ${tmp}
variable        pref equal 531.041660964536
variable        tmp equal sum(f_mygcmc)
variable        gcmcref equal ${tmp}
variable        gcmcref equal 2107
clear
OMP_NUM_THREADS environment is not set. Defaulting to 1 thread.
  using 1 OpenMP thread(s) per MPI task

# rerun simulation from restart

read_restart    ${restartfile}
read_restart    restart.gcmc.h2o
Reading restart file ...
  restart file = 30 Mar 2026, LAMMPS = 30 Mar 2026
  restoring atom style full from restart
  orthogonal box = (0 0 0) to (10 10 10)
  1 by 1 by 1 MPI processor grid
  restoring pair style lj/cut/coul/long from restart
  restoring bond style harmonic from restart
  restoring angle style harmonic from restart
  63 atoms
  122 bonds
  61 angles
Finding 1-2 1-3 1-4 neighbors ...
  special bond factors lj:    0        0        0       
  special bond factors coul:  0        0        0       
     2 = max # of 1-2 neighbors
     1 = max # of 1-3 neighbors
     1 = max # of 1-4 neighbors
     3 = max # of special neighbors
  special bonds CPU = 0.000 seconds
  read_restart CPU = 0.002 seconds
molecule        h2omol H2O.txt
Read molecule template h2omol:
# Water molecule. SPC/E model.
  1 molecules
  0 fragments
  0 bodies
  3 atoms with max type 2
  2 bonds with max type 1
  1 angles with max type 1
  0 dihedrals with max type 0
  0 impropers with max type 0
kspace_style    ewald 0.0001
fix             mynvt h2o nvt temp ${temp} ${temp} 100
fix             mynvt h2o nvt temp 338 ${temp} 100
fix             mynvt h2o nvt temp 338 338 100
Resetting global fix info from restart file:
  fix style: nvt, fix ID: mynvt
fix             wshake h2o shake 0.0001 50 0 b 1 a 1 mol h2omol
Finding SHAKE clusters ...
       0 = # of size 2 clusters
       0 = # of size 3 clusters
       0 = # of size 4 clusters
      21 = # of frozen angles
  find clusters CPU = 0.000 seconds

# important to make temperature dofs dynamic

compute_modify  thermo_temp dynamic/dof yes
compute_modify  mynvt_temp dynamic/dof yes

# gcmc

fix             mygcmc h2o gcmc ${nevery} 100 0 0 54341 ${temp} ${mu} ${disp} mol                 h2omol tfac_insert ${tfac} group h2o shake wshake
fix             mygcmc h2o gcmc 10 100 0 0 54341 ${temp} ${mu} ${disp} mol                 h2omol tfac_insert ${tfac} group h2o shake wshake
fix             mygcmc h2o gcmc 10 100 0 0 54341 338 ${mu} ${disp} mol                 h2omol tfac_insert ${tfac} group h2o shake wshake
fix             mygcmc h2o gcmc 10 100 0 0 54341 338 -8.1 ${disp} mol                 h2omol tfac_insert ${tfac} group h2o shake wshake
fix             mygcmc h2o gcmc 10 100 0 0 54341 338 -8.1 0.5 mol                 h2omol tfac_insert ${tfac} group h2o shake wshake
fix             mygcmc h2o gcmc 10 100 0 0 54341 338 -8.1 0.5 mol                 h2omol tfac_insert 1.66666666666667 group h2o shake wshake
Resetting global fix info from restart file:
  fix style: gcmc, fix ID: mygcmc

# output

compute_modify  thermo_temp dynamic/dof yes
thermo_style    custom step temp press pe ke density atoms

# rerun simulation from restart, measure errors, and clear

run             ${nsteps}
run             100
Ewald initialization ...
  using 12-bit tables for long-range coulomb
  G vector (1/distance) = 0.17752356
  estimated absolute RMS force accuracy = 0.03320641
  estimated relative force accuracy = 0.00010000012
  KSpace vectors: actual max1d max3d = 16 2 62
                  kxmax kymax kzmax  = 2 2 2
Generated 0 of 1 mixed pair_coeff terms from arithmetic mixing rule
All restart file global fix info was re-assigned
WARNING: Fix gcmc using full_energy option (src/MC/fix_gcmc.cpp:545)
0 atoms in group FixGCMC:gcmc_exclusion_group:mygcmc
0 atoms in group FixGCMC:rotation_gas_atoms:mygcmc
WARNING: Neighbor exclusions used with KSpace solver may give inconsistent Coulombic energies (src/neighbor.cpp:659)
Neighbor list info ...
  update: every = 1 steps, delay = 0 steps, check = yes
  max neighbors/atom: 2000, page size: 100000
  master list distance cutoff = 16
  ghost atom cutoff = 16
  binsize = 8, bins = 2 2 2
  1 neighbor lists, perpetual/occasional/extra = 1 0 0
  (1) pair lj/cut/coul/long, perpetual
      attributes: half, newton on
      pair build: half/bin/newton
      stencil: half/bin/3d
      bin: standard
Per MPI rank memory allocation (min/avg/max) = 11.78 | 11.78 | 11.78 Mbytes
   Step          Temp          Press          PotEng         KinEng        Density        Atoms   
       100   453.61712     -1139.0475     -135.57728      55.438006      0.62766279            63 
       200   514.09608      531.04175     -223.32493      81.218407      0.80699501            81 
Loop time of 3.11317 on 1 procs for 100 steps with 81 atoms

Performance: 2.775 ns/day, 8.648 hours/ns, 32.122 timesteps/s, 2.602 katom-step/s
99.8% CPU use with 1 MPI tasks x 1 OpenMP threads

MPI task timing breakdown:
Section |  min time  |  avg time  |  max time  |%varavg| %total
---------------------------------------------------------------
Pair    | 0.065605   | 0.065605   | 0.065605   |   0.0 |  2.11
Bond    | 5.8034e-05 | 5.8034e-05 | 5.8034e-05 |   0.0 |  0.00
Kspace  | 0.0014785  | 0.0014785  | 0.0014785  |   0.0 |  0.05
Neigh   | 0.017242   | 0.017242   | 0.017242   |   0.0 |  0.55
Comm    | 0.0023421  | 0.0023421  | 0.0023421  |   0.0 |  0.08
Output  | 1.8904e-05 | 1.8904e-05 | 1.8904e-05 |   0.0 |  0.00
Modify  | 3.0261     | 3.0261     | 3.0261     |   0.0 | 97.20
Other   |            | 0.0003409  |            |       |  0.01

Nlocal:             81 ave          81 max          81 min
Histogram: 1 0 0 0 0 0 0 0 0 0
Nghost:           6019 ave        6019 max        6019 min
Histogram: 1 0 0 0 0 0 0 0 0 0
Neighs:          56176 ave       56176 max       56176 min
Histogram: 1 0 0 0 0 0 0 0 0 0

Total # of neighbors = 56176
Ave neighs/atom = 693.53086
Ave special neighs/atom = 2
Neighbor list builds = 1020
Dangerous builds = 0
variable        tmp equal temp
variable        terror equal ${tmp} - v_tref
variable        terror equal 514.096080869519 - v_tref
variable        tmp equal press
variable        perror equal ${tmp} - v_pref
variable        perror equal 531.041752589746 - v_pref
variable        tmp equal sum(f_mygcmc)
variable        gcmcerror equal ${tmp} - v_gcmcref
variable        gcmcerror equal 2107 - v_gcmcref
clear
OMP_NUM_THREADS environment is not set. Defaulting to 1 thread.
  using 1 OpenMP thread(s) per MPI task

# report restart errors

print "H2O: change in temperature from restart = ${terror} "
H2O: change in temperature from restart = -3.76532966583909e-07 
print "H2O: change in pressure from restart = ${perror} "
H2O: change in pressure from restart = 9.16252099614212e-05 
print "H2O: change in fix GCMC from restart = ${gcmcerror} "
H2O: change in fix GCMC from restart = 0 

Total wall time: 0:00:10
