ITEM: TIMESTEP
0
ITEM: NUMBER OF ATOMS
250
ITEM: BOX BOUNDS pp pp pp
0.0000000000000000e+00 1.4332500000000000e+01
0.0000000000000000e+00 1.4332500000000000e+01
0.0000000000000000e+00 1.4332500000000000e+01
ITEM: ATOMS type x y z c_outsp[1] c_outsp[2] c_outsp[3]
1 0 0 0 -1 0 0
1 1.43325 1.43325 1.43325 -1 0 0
1 2.8665 0 0 -1 0 0
1 0 2.8665 0 -1 0 0
1 2.8665 2.8665 0 -1 0 0
1 0 0 2.8665 -1 0 0
1 2.8665 0 2.8665 -1 0 0
1 0 2.8665 2.8665 -1 0 0
1 2.8665 2.8665 2.8665 -1 0 0
1 4.29975 1.43325 1.43325 -1 0 0
1 5.733 0 0 -1 0 0
1 7.16625 1.43325 1.43325 -1 0 0
1 5.733 2.8665 0 -1 0 0
1 5.733 0 2.8665 -1 0 0
1 5.733 2.8665 2.8665 -1 0 0
1 8.5995 0 0 -1 0 0
1 10.0328 1.43325 1.43325 -1 0 0
1 8.5995 2.8665 0 -1 0 0
1 8.5995 0 2.8665 -1 0 0
1 8.5995 2.8665 2.8665 -1 0 0
1 11.466 0 0 -1 0 0
1 12.8992 1.43325 1.43325 -1 0 0
1 11.466 2.8665 0 -1 0 0
1 11.466 0 2.8665 -1 0 0
1 11.466 2.8665 2.8665 -1 0 0
1 1.43325 4.29975 1.43325 -1 0 0
1 0 5.733 0 -1 0 0
1 2.8665 5.733 0 -1 0 0
1 0 5.733 2.8665 -1 0 0
1 2.8665 5.733 2.8665 -1 0 0
1 4.29975 4.29975 1.43325 -1 0 0
1 7.16625 4.29975 1.43325 -1 0 0
1 5.733 5.733 0 -1 0 0
1 5.733 5.733 2.8665 -1 0 0
1 10.0328 4.29975 1.43325 -1 0 0
1 8.5995 5.733 0 -1 0 0
1 8.5995 5.733 2.8665 -1 0 0
1 12.8992 4.29975 1.43325 -1 0 0
1 11.466 5.733 0 -1 0 0
1 11.466 5.733 2.8665 -1 0 0
1 1.43325 1.43325 4.29975 -1 0 0
1 0 0 5.733 -1 0 0
1 2.8665 0 5.733 -1 0 0
1 0 2.8665 5.733 -1 0 0
1 2.8665 2.8665 5.733 -1 0 0
1 4.29975 1.43325 4.29975 -1 0 0
1 7.16625 1.43325 4.29975 -1 0 0
1 5.733 0 5.733 -1 0 0
1 5.733 2.8665 5.733 -1 0 0
1 10.0328 1.43325 4.29975 -1 0 0
1 8.5995 0 5.733 -1 0 0
1 8.5995 2.8665 5.733 -1 0 0
1 12.8992 1.43325 4.29975 -1 0 0
1 11.466 0 5.733 -1 0 0
1 11.466 2.8665 5.733 -1 0 0
1 1.43325 4.29975 4.29975 -1 0 0
1 0 5.733 5.733 -1 0 0
1 2.8665 5.733 5.733 -1 0 0
1 4.29975 4.29975 4.29975 -1 0 0
1 7.16625 4.29975 4.29975 -1 0 0
1 5.733 5.733 5.733 -1 0 0
1 10.0328 4.29975 4.29975 -1 0 0
1 8.5995 5.733 5.733 -1 0 0
1 12.8992 4.29975 4.29975 -1 0 0
1 11.466 5.733 5.733 -1 0 0
1 1.43325 1.43325 7.16625 -1 0 0
1 0 0 8.5995 -1 0 0
1 1.43325 1.43325 10.0328 -1 0 0
1 2.8665 0 8.5995 -1 0 0
1 0 2.8665 8.5995 -1 0 0
1 2.8665 2.8665 8.5995 -1 0 0
1 4.29975 1.43325 7.16625 -1 0 0
1 7.16625 1.43325 7.16625 -1 0 0
1 4.29975 1.43325 10.0328 -1 0 0
1 5.733 0 8.5995 -1 0 0
1 7.16625 1.43325 10.0328 -1 0 0
1 5.733 2.8665 8.5995 -1 0 0
1 10.0328 1.43325 7.16625 -1 0 0
1 8.5995 0 8.5995 -1 0 0
1 10.0328 1.43325 10.0328 -1 0 0
1 8.5995 2.8665 8.5995 -1 0 0
1 12.8992 1.43325 7.16625 -1 0 0
1 11.466 0 8.5995 -1 0 0
1 12.8992 1.43325 10.0328 -1 0 0
1 11.466 2.8665 8.5995 -1 0 0
1 1.43325 4.29975 7.16625 -1 0 0
1 1.43325 4.29975 10.0328 -1 0 0
1 0 5.733 8.5995 -1 0 0
1 2.8665 5.733 8.5995 -1 0 0
1 4.29975 4.29975 7.16625 -1 0 0
1 7.16625 4.29975 7.16625 -1 0 0
1 4.29975 4.29975 10.0328 -1 0 0
1 7.16625 4.29975 10.0328 -1 0 0
1 5.733 5.733 8.5995 -1 0 0
1 10.0328 4.29975 7.16625 -1 0 0
1 10.0328 4.29975 10.0328 -1 0 0
1 8.5995 5.733 8.5995 -1 0 0
1 12.8992 4.29975 7.16625 -1 0 0
1 12.8992 4.29975 10.0328 -1 0 0
1 11.466 5.733 8.5995 -1 0 0
1 0 0 11.466 -1 0 0
1 1.43325 1.43325 12.8992 -1 0 0
1 2.8665 0 11.466 -1 0 0
1 0 2.8665 11.466 -1 0 0
1 2.8665 2.8665 11.466 -1 0 0
1 4.29975 1.43325 12.8992 -1 0 0
1 5.733 0 11.466 -1 0 0
1 7.16625 1.43325 12.8992 -1 0 0
1 5.733 2.8665 11.466 -1 0 0
1 8.5995 0 11.466 -1 0 0
1 10.0328 1.43325 12.8992 -1 0 0
1 8.5995 2.8665 11.466 -1 0 0
1 11.466 0 11.466 -1 0 0
1 12.8992 1.43325 12.8992 -1 0 0
1 11.466 2.8665 11.466 -1 0 0
1 1.43325 4.29975 12.8992 -1 0 0
1 0 5.733 11.466 -1 0 0
1 2.8665 5.733 11.466 -1 0 0
1 4.29975 4.29975 12.8992 -1 0 0
1 7.16625 4.29975 12.8992 -1 0 0
1 5.733 5.733 11.466 -1 0 0
1 10.0328 4.29975 12.8992 -1 0 0
1 8.5995 5.733 11.466 -1 0 0
1 12.8992 4.29975 12.8992 -1 0 0
1 11.466 5.733 11.466 -1 0 0
1 1.43325 7.16625 1.43325 -1 0 0
1 0 8.5995 0 -1 0 0
1 1.43325 10.0328 1.43325 -1 0 0
1 2.8665 8.5995 0 -1 0 0
1 0 8.5995 2.8665 -1 0 0
1 2.8665 8.5995 2.8665 -1 0 0
1 4.29975 7.16625 1.43325 -1 0 0
1 7.16625 7.16625 1.43325 -1 0 0
1 4.29975 10.0328 1.43325 -1 0 0
1 5.733 8.5995 0 -1 0 0
1 7.16625 10.0328 1.43325 -1 0 0
1 5.733 8.5995 2.8665 -1 0 0
1 10.0328 7.16625 1.43325 -1 0 0
1 8.5995 8.5995 0 -1 0 0
1 10.0328 10.0328 1.43325 -1 0 0
1 8.5995 8.5995 2.8665 -1 0 0
1 12.8992 7.16625 1.43325 -1 0 0
1 11.466 8.5995 0 -1 0 0
1 12.8992 10.0328 1.43325 -1 0 0
1 11.466 8.5995 2.8665 -1 0 0
1 0 11.466 0 -1 0 0
1 1.43325 12.8992 1.43325 -1 0 0
1 2.8665 11.466 0 -1 0 0
1 0 11.466 2.8665 -1 0 0
1 2.8665 11.466 2.8665 -1 0 0
1 4.29975 12.8992 1.43325 -1 0 0
1 5.733 11.466 0 -1 0 0
1 7.16625 12.8992 1.43325 -1 0 0
1 5.733 11.466 2.8665 -1 0 0
1 8.5995 11.466 0 -1 0 0
1 10.0328 12.8992 1.43325 -1 0 0
1 8.5995 11.466 2.8665 -1 0 0
1 11.466 11.466 0 -1 0 0
1 12.8992 12.8992 1.43325 -1 0 0
1 11.466 11.466 2.8665 -1 0 0
1 1.43325 7.16625 4.29975 -1 0 0
1 1.43325 10.0328 4.29975 -1 0 0
1 0 8.5995 5.733 -1 0 0
1 2.8665 8.5995 5.733 -1 0 0
1 4.29975 7.16625 4.29975 -1 0 0
1 7.16625 7.16625 4.29975 -1 0 0
1 4.29975 10.0328 4.29975 -1 0 0
1 7.16625 10.0328 4.29975 -1 0 0
1 5.733 8.5995 5.733 -1 0 0
1 10.0328 7.16625 4.29975 -1 0 0
1 10.0328 10.0328 4.29975 -1 0 0
1 8.5995 8.5995 5.733 -1 0 0
1 12.8992 7.16625 4.29975 -1 0 0
1 12.8992 10.0328 4.29975 -1 0 0
1 11.466 8.5995 5.733 -1 0 0
1 1.43325 12.8992 4.29975 -1 0 0
1 0 11.466 5.733 -1 0 0
1 2.8665 11.466 5.733 -1 0 0
1 4.29975 12.8992 4.29975 -1 0 0
1 7.16625 12.8992 4.29975 -1 0 0
1 5.733 11.466 5.733 -1 0 0
1 10.0328 12.8992 4.29975 -1 0 0
1 8.5995 11.466 5.733 -1 0 0
1 12.8992 12.8992 4.29975 -1 0 0
1 11.466 11.466 5.733 -1 0 0
1 1.43325 7.16625 7.16625 -1 0 0
1 1.43325 10.0328 7.16625 -1 0 0
1 1.43325 7.16625 10.0328 -1 0 0
1 0 8.5995 8.5995 -1 0 0
1 1.43325 10.0328 10.0328 -1 0 0
1 2.8665 8.5995 8.5995 -1 0 0
1 4.29975 7.16625 7.16625 -1 0 0
1 7.16625 7.16625 7.16625 -1 0 0
1 4.29975 10.0328 7.16625 -1 0 0
1 7.16625 10.0328 7.16625 -1 0 0
1 4.29975 7.16625 10.0328 -1 0 0
1 7.16625 7.16625 10.0328 -1 0 0
1 4.29975 10.0328 10.0328 -1 0 0
1 5.733 8.5995 8.5995 -1 0 0
1 7.16625 10.0328 10.0328 -1 0 0
1 10.0328 7.16625 7.16625 -1 0 0
1 10.0328 10.0328 7.16625 -1 0 0
1 10.0328 7.16625 10.0328 -1 0 0
1 8.5995 8.5995 8.5995 -1 0 0
1 10.0328 10.0328 10.0328 -1 0 0
1 12.8992 7.16625 7.16625 -1 0 0
1 12.8992 10.0328 7.16625 -1 0 0
1 12.8992 7.16625 10.0328 -1 0 0
1 11.466 8.5995 8.5995 -1 0 0
1 12.8992 10.0328 10.0328 -1 0 0
1 1.43325 12.8992 7.16625 -1 0 0
1 0 11.466 8.5995 -1 0 0
1 1.43325 12.8992 10.0328 -1 0 0
1 2.8665 11.466 8.5995 -1 0 0
1 4.29975 12.8992 7.16625 -1 0 0
1 7.16625 12.8992 7.16625 -1 0 0
1 4.29975 12.8992 10.0328 -1 0 0
1 5.733 11.466 8.5995 -1 0 0
1 7.16625 12.8992 10.0328 -1 0 0
1 10.0328 12.8992 7.16625 -1 0 0
1 8.5995 11.466 8.5995 -1 0 0
1 10.0328 12.8992 10.0328 -1 0 0
1 12.8992 12.8992 7.16625 -1 0 0
1 11.466 11.466 8.5995 -1 0 0
1 12.8992 12.8992 10.0328 -1 0 0
1 1.43325 7.16625 12.8992 -1 0 0
1 0 8.5995 11.466 -1 0 0
1 1.43325 10.0328 12.8992 -1 0 0
1 2.8665 8.5995 11.466 -1 0 0
1 4.29975 7.16625 12.8992 -1 0 0
1 7.16625 7.16625 12.8992 -1 0 0
1 4.29975 10.0328 12.8992 -1 0 0
1 5.733 8.5995 11.466 -1 0 0
1 7.16625 10.0328 12.8992 -1 0 0
1 10.0328 7.16625 12.8992 -1 0 0
1 8.5995 8.5995 11.466 -1 0 0
1 10.0328 10.0328 12.8992 -1 0 0
1 12.8992 7.16625 12.8992 -1 0 0
1 11.466 8.5995 11.466 -1 0 0
1 12.8992 10.0328 12.8992 -1 0 0
1 0 11.466 11.466 -1 0 0
1 1.43325 12.8992 12.8992 -1 0 0
1 2.8665 11.466 11.466 -1 0 0
1 4.29975 12.8992 12.8992 -1 0 0
1 5.733 11.466 11.466 -1 0 0
1 7.16625 12.8992 12.8992 -1 0 0
1 8.5995 11.466 11.466 -1 0 0
1 10.0328 12.8992 12.8992 -1 0 0
1 11.466 11.466 11.466 -1 0 0
1 12.8992 12.8992 12.8992 -1 0 0
ITEM: TIMESTEP
100
ITEM: NUMBER OF ATOMS
250
ITEM: BOX BOUNDS pp pp pp
0.0000000000000000e+00 1.4332500000000000e+01
0.0000000000000000e+00 1.4332500000000000e+01
0.0000000000000000e+00 1.4332500000000000e+01
ITEM: ATOMS type x y z c_outsp[1] c_outsp[2] c_outsp[3]
1 0.0229118 0.0176806 -0.00319469 -1 0 0
1 1.4453 1.40514 1.43141 -1 0 0
1 2.87599 -0.000973207 0.0297176 -1 0 0
1 0.00229912 2.86982 0.0098271 -1 0 0
1 2.86118 2.85462 -0.0208855 -1 0 0
1 -0.00220862 -0.015069 2.85591 -1 0 0
1 2.84517 -0.00795996 2.84973 -1 0 0
1 -0.00740742 2.8573 2.87206 -1 0 0
1 2.85309 2.84491 2.85354 -1 0 0
1 4.29583 1.42232 1.42163 -1 0 0
1 5.71756 0.00760207 0.0246115 -1 0 0
1 7.16325 1.42511 1.4268 -1 0 0
1 5.73669 2.87324 -0.00117674 -1 0 0
1 5.7214 -0.00508321 2.85711 -1 0 0
1 5.70851 2.86773 2.85869 -1 0 0
1 8.58617 -0.00919912 -0.0145276 -1 0 0
1 10.0327 1.42743 1.42975 -1 0 0
1 8.6051 2.86917 0.00480104 -1 0 0
1 8.59336 -0.0195799 2.87695 -1 0 0
1 8.59852 2.86479 2.87409 -1 0 0
1 11.4667 0.000477475 0.0066651 -1 0 0
1 12.8922 1.4297 1.43518 -1 0 0
1 11.4743 2.87473 0.00559234 -1 0 0
1 11.4643 0.0144558 2.85024 -1 0 0
1 11.4635 2.87711 2.865 -1 0 0
1 1.43132 4.3038 1.42457 -1 0 0
1 -0.010522 5.72072 0.0153078 -1 0 0
1 2.86198 5.74414 -0.00665236 -1 0 0
1 0.00598377 5.71975 2.88502 -1 0 0
1 2.86014 5.74558 2.8691 -1 0 0
1 4.31658 4.30576 1.44034 -1 0 0
1 7.15653 4.28874 1.43517 -1 0 0
1 5.72095 5.72487 0.00227978 -1 0 0
1 5.74025 5.74565 2.85355 -1 0 0
1 10.0376 4.28789 1.45384 -1 0 0
1 8.61545 5.72196 0.00384508 -1 0 0
1 8.59713 5.74537 2.85484 -1 0 0
1 12.8944 4.2877 1.4172 -1 0 0
1 11.4798 5.72125 0.00864213 -1 0 0
1 11.4542 5.74656 2.8632 -1 0 0
1 1.44026 1.42312 4.31884 -1 0 0
1 -0.00142112 -0.00112019 5.73574 -1 0 0
1 2.86843 -0.00419572 5.72797 -1 0 0
1 -0.0017914 2.87311 5.72239 -1 0 0
1 2.87144 2.85866 5.72956 -1 0 0
1 4.29872 1.42509 4.30719 -1 0 0
1 7.18052 1.45721 4.31665 -1 0 0
1 5.72601 0.018646 5.73205 -1 0 0
1 5.73504 2.85714 5.74007 -1 0 0
1 10.0291 1.43486 4.30157 -1 0 0
1 8.60283 -0.00322486 5.74648 -1 0 0
1 8.59698 2.87849 5.72124 -1 0 0
1 12.8919 1.43854 4.30382 -1 0 0
1 11.4869 -0.00259224 5.71292 -1 0 0
1 11.4589 2.9055 5.71764 -1 0 0
1 1.42835 4.31667 4.29815 -1 0 0
1 0.00802626 5.73648 5.72589 -1 0 0
1 2.86274 5.72083 5.73068 -1 0 0
1 4.31265 4.30905 4.31437 -1 0 0
1 7.16646 4.2873 4.30126 -1 0 0
1 5.73014 5.72441 5.71786 -1 0 0
1 10.0267 4.28592 4.29791 -1 0 0
1 8.61341 5.74777 5.7097 -1 0 0
1 12.9066 4.30198 4.28735 -1 0 0
1 11.4715 5.71438 5.7335 -1 0 0
1 1.44676 1.41771 7.16894 -1 0 0
1 0.0152314 0.0148756 8.59677 -1 0 0
1 1.42792 1.43237 10.0361 -1 0 0
1 2.84065 0.00356104 8.60801 -1 0 0
1 0.000524106 2.87664 8.58878 -1 0 0
1 2.86705 2.85066 8.5914 -1 0 0
1 4.29808 1.44297 7.17974 -1 0 0
1 7.20588 1.40555 7.15895 -1 0 0
1 4.30597 1.45273 10.0305 -1 0 0
1 5.74026 -0.0089858 8.5759 -1 0 0
1 7.18051 1.43504 10.0472 -1 0 0
1 5.74408 2.85454 8.61434 -1 0 0
1 10.036 1.46514 7.15609 -1 0 0
1 8.61716 0.00949364 8.58483 -1 0 0
1 10.0354 1.42776 10.0436 -1 0 0
1 8.57877 2.8779 8.61415 -1 0 0
1 12.9034 1.4455 7.18049 -1 0 0
1 11.4628 -0.0301352 8.5828 -1 0 0
1 12.8995 1.43147 10.017 -1 0 0
1 11.4434 2.87227 8.60161 -1 0 0
1 1.42026 4.30682 7.17091 -1 0 0
1 1.42436 4.2956 10.0349 -1 0 0
1 0.0254205 5.73127 8.60826 -1 0 0
1 2.86941 5.73386 8.56376 -1 0 0
1 4.30437 4.29649 7.16903 -1 0 0
1 7.16282 4.29551 7.1654 -1 0 0
1 4.29991 4.27758 10.0208 -1 0 0
1 7.1489 4.29896 10.0304 -1 0 0
1 5.73077 5.75352 8.59968 -1 0 0
1 10.0444 4.30251 7.16716 -1 0 0
1 10.0325 4.2853 10.0401 -1 0 0
1 8.58499 5.714 8.59037 -1 0 0
1 12.9129 4.31586 7.16118 -1 0 0
1 12.8925 4.27491 10.0414 -1 0 0
1 11.4654 5.73489 8.60185 -1 0 0
1 -0.00343968 0.0146143 11.4887 -1 0 0
1 1.41784 1.44667 12.8973 -1 0 0
1 2.87114 0.00709283 11.4462 -1 0 0
1 0.00871868 2.85155 11.4713 -1 0 0
1 2.854 2.84694 11.4545 -1 0 0
1 4.31655 1.43821 12.8873 -1 0 0
1 5.71891 -0.011816 11.4765 -1 0 0
1 7.16155 1.43314 12.8975 -1 0 0
1 5.72947 2.87467 11.4729 -1 0 0
1 8.60991 0.0151583 11.4804 -1 0 0
1 10.0165 1.43011 12.8983 -1 0 0
1 8.58716 2.85794 11.4465 -1 0 0
1 11.4698 0.0144749 11.479 -1 0 0
1 12.8919 1.43218 12.8894 -1 0 0
1 11.4406 2.86876 11.4683 -1 0 0
1 1.43711 4.30397 12.9103 -1 0 0
1 -0.0118198 5.74856 11.4741 -1 0 0
1 2.8748 5.73533 11.4707 -1 0 0
1 4.31116 4.29818 12.8914 -1 0 0
1 7.16998 4.28151 12.9046 -1 0 0
1 5.71713 5.73447 11.4762 -1 0 0
1 10.0239 4.29572 12.8952 -1 0 0
1 8.57428 5.732 11.4615 -1 0 0
1 12.8701 4.29024 12.8878 -1 0 0
1 11.4752 5.72225 11.4456 -1 0 0
1 1.42184 7.16835 1.42215 -1 0 0
1 -0.0163395 8.6066 -0.00709153 -1 0 0
1 1.44381 10.0427 1.424 -1 0 0
1 2.8752 8.60472 0.0108819 -1 0 0
1 0.00408294 8.58272 2.8645 -1 0 0
1 2.85768 8.60332 2.86512 -1 0 0
1 4.31092 7.17286 1.44108 -1 0 0
1 7.16575 7.1663 1.45198 -1 0 0
1 4.29555 10.0469 1.41131 -1 0 0
1 5.74398 8.59522 0.0100344 -1 0 0
1 7.172 10.0246 1.44657 -1 0 0
1 5.74494 8.62345 2.89177 -1 0 0
1 10.0302 7.16346 1.41629 -1 0 0
1 8.59684 8.59394 -0.00337987 -1 0 0
1 10.0216 10.0409 1.42138 -1 0 0
1 8.60539 8.61136 2.86436 -1 0 0
1 12.8908 7.16289 1.46574 -1 0 0
1 11.4722 8.59876 -0.00667526 -1 0 0
1 12.89 10.0389 1.43402 -1 0 0
1 11.4787 8.59812 2.8473 -1 0 0
1 0.0117867 11.4721 0.0200445 -1 0 0
1 1.42933 12.9001 1.42949 -1 0 0
1 2.87033 11.4583 0.00156185 -1 0 0
1 0.00885942 11.4539 2.84523 -1 0 0
1 2.87663 11.4594 2.86524 -1 0 0
1 4.29687 12.8992 1.42174 -1 0 0
1 5.7217 11.4627 -8.22234e-05 -1 0 0
1 7.18217 12.9039 1.41872 -1 0 0
1 5.74523 11.4571 2.90318 -1 0 0
1 8.57671 11.4618 -0.00595473 -1 0 0
1 10.0384 12.8979 1.42936 -1 0 0
1 8.57697 11.4697 2.86333 -1 0 0
1 11.4704 11.48 -0.0116836 -1 0 0
1 12.9059 12.903 1.42712 -1 0 0
1 11.4589 11.4593 2.86512 -1 0 0
1 1.44407 7.16305 4.28507 -1 0 0
1 1.43928 10.031 4.31751 -1 0 0
1 -0.0104416 8.61556 5.73574 -1 0 0
1 2.86256 8.57668 5.7327 -1 0 0
1 4.28759 7.1794 4.31872 -1 0 0
1 7.1612 7.16524 4.28919 -1 0 0
1 4.31674 10.0173 4.29837 -1 0 0
1 7.13907 10.0512 4.32457 -1 0 0
1 5.73152 8.60792 5.73281 -1 0 0
1 10.0343 7.16124 4.29581 -1 0 0
1 10.0302 10.0218 4.29635 -1 0 0
1 8.59303 8.5772 5.73463 -1 0 0
1 12.8955 7.15892 4.30794 -1 0 0
1 12.9229 10.0483 4.3148 -1 0 0
1 11.4658 8.59177 5.74502 -1 0 0
1 1.4407 12.8881 4.29466 -1 0 0
1 0.0174203 11.4657 5.73024 -1 0 0
1 2.8367 11.4602 5.73053 -1 0 0
1 4.29075 12.8976 4.31578 -1 0 0
1 7.16777 12.8996 4.31451 -1 0 0
1 5.72589 11.4684 5.74876 -1 0 0
1 10.0666 12.8997 4.29603 -1 0 0
1 8.61473 11.4739 5.74203 -1 0 0
1 12.8914 12.914 4.29969 -1 0 0
1 11.4742 11.4573 5.728 -1 0 0
1 1.43152 7.18483 7.14622 -1 0 0
1 1.44011 10.0324 7.15643 -1 0 0
1 1.43055 7.16081 10.035 -1 0 0
1 0.00183757 8.60819 8.58639 -1 0 0
1 1.44815 10.0264 10.0323 -1 0 0
1 2.86029 8.6005 8.59008 -1 0 0
1 4.3062 7.15768 7.16935 -1 0 0
1 7.16415 7.16164 7.14041 -1 0 0
1 4.30205 10.0357 7.17657 -1 0 0
1 7.16287 10.0302 7.15435 -1 0 0
1 4.29886 7.15396 10.0347 -1 0 0
1 7.19433 7.16516 10.0241 -1 0 0
1 4.28962 10.0338 10.0515 -1 0 0
1 5.74306 8.60063 8.60091 -1 0 0
1 7.16784 10.0492 10.0251 -1 0 0
1 10.0302 7.16541 7.14911 -1 0 0
1 10.0217 10.0113 7.17109 -1 0 0
1 10.0301 7.17358 10.0322 -1 0 0
1 8.59737 8.60098 8.57686 -1 0 0
1 10.042 10.0314 10.0485 -1 0 0
1 12.9262 7.15259 7.15276 -1 0 0
1 12.899 10.041 7.15609 -1 0 0
1 12.9209 7.17648 10.0433 -1 0 0
1 11.4481 8.59903 8.61283 -1 0 0
1 12.8977 10.0243 10.0208 -1 0 0
1 1.43605 12.8928 7.14968 -1 0 0
1 0.0216913 11.4721 8.59159 -1 0 0
1 1.43875 12.892 10.0542 -1 0 0
1 2.856 11.4589 8.59276 -1 0 0
1 4.29594 12.9119 7.14621 -1 0 0
1 7.15451 12.9166 7.17796 -1 0 0
1 4.31914 12.8884 10.0152 -1 0 0
1 5.72509 11.4474 8.60338 -1 0 0
1 7.1294 12.9275 10.0503 -1 0 0
1 10.0066 12.9001 7.17904 -1 0 0
1 8.60654 11.4581 8.60374 -1 0 0
1 10.0301 12.8969 10.0535 -1 0 0
1 12.9165 12.8911 7.16247 -1 0 0
1 11.4468 11.4501 8.60816 -1 0 0
1 12.8835 12.9248 10.0402 -1 0 0
1 1.45586 7.15452 12.9143 -1 0 0
1 0.00433347 8.61896 11.4688 -1 0 0
1 1.44409 10.0315 12.9246 -1 0 0
1 2.85942 8.58954 11.4545 -1 0 0
1 4.31986 7.16805 12.9089 -1 0 0
1 7.15623 7.18762 12.9131 -1 0 0
1 4.29961 10.0532 12.8967 -1 0 0
1 5.72743 8.57869 11.4685 -1 0 0
1 7.17272 10.044 12.8906 -1 0 0
1 10.0364 7.16408 12.8993 -1 0 0
1 8.5906 8.60644 11.48 -1 0 0
1 10.0338 10.042 12.8934 -1 0 0
1 12.9007 7.17733 12.8975 -1 0 0
1 11.4714 8.61814 11.4797 -1 0 0
1 12.905 10.0174 12.8984 -1 0 0
1 -0.00363204 11.4758 11.4602 -1 0 0
1 1.42746 12.9041 12.9069 -1 0 0
1 2.8638 11.4619 11.47 -1 0 0
1 4.30653 12.916 12.902 -1 0 0
1 5.72981 11.4687 11.4778 -1 0 0
1 7.1532 12.8862 12.8944 -1 0 0
1 8.63808 11.4675 11.4639 -1 0 0
1 10.0184 12.9041 12.884 -1 0 0
1 11.4605 11.459 11.4863 -1 0 0
1 12.9093 12.9148 12.8995 -1 0 0
ITEM: TIMESTEP
200
ITEM: NUMBER OF ATOMS
250
ITEM: BOX BOUNDS pp pp pp
0.0000000000000000e+00 1.4332500000000000e+01
0.0000000000000000e+00 1.4332500000000000e+01
0.0000000000000000e+00 1.4332500000000000e+01
ITEM: ATOMS type x y z c_outsp[1] c_outsp[2] c_outsp[3]
1 12.8919 7.15297 4.31571 -1 0 0
1 1.45433 1.3823 1.43007 -1 0 0
1 11.4762 5.69812 5.73311 -1 0 0
1 0.00400911 2.87216 0.0185624 -1 0 0
1 10.037 7.15795 4.29106 -1 0 0
1 12.9128 4.30471 4.27522 -1 0 0
1 8.62532 5.75921 5.68847 -1 0 0
1 14.3201 2.84774 2.87627 -1 0 0
1 2.84094 2.82654 2.84234 -1 0 0
1 4.29203 1.41469 1.41214 -1 0 0
1 5.70496 0.0139543 0.04527 -1 0 0
1 7.1614 1.41827 1.42235 -1 0 0
1 7.15625 7.16478 4.27951 -1 0 0
1 10.0205 4.27544 4.29452 -1 0 0
1 5.68643 2.86716 2.85262 -1 0 0
1 5.72835 5.71713 5.70441 -1 0 0
1 10.0309 1.422 1.42645 -1 0 0
1 8.61035 2.87105 0.00970979 -1 0 0
1 7.16577 4.27714 4.30115 -1 0 0
1 8.59697 2.86228 2.87938 -1 0 0
1 11.4669 0.00102643 0.0113559 -1 0 0
1 12.8868 1.42679 1.43641 -1 0 0
1 11.4801 2.88048 0.0099979 -1 0 0
1 11.4628 0.0274952 2.83561 -1 0 0
1 11.4618 2.88567 2.86399 -1 0 0
1 1.43099 4.30674 1.41754 -1 0 0
1 14.3108 5.71042 0.0280375 -1 0 0
1 1.45267 7.16102 4.2727 -1 0 0
1 0.0106761 5.70801 2.89975 -1 0 0
1 2.85593 5.75608 2.87026 -1 0 0
1 4.3285 4.31101 1.44647 -1 0 0
1 7.14861 4.27885 1.43748 -1 0 0
1 5.71194 5.7177 0.00428454 -1 0 0
1 5.74596 5.75684 2.84358 -1 0 0
1 10.0414 4.27749 1.47197 -1 0 0
1 8.62836 5.71165 0.00735436 -1 0 0
1 8.59519 5.7554 2.84454 -1 0 0
1 12.8906 4.27717 1.40538 -1 0 0
1 11.4916 5.71127 0.0157585 -1 0 0
1 11.4432 5.75742 2.86078 -1 0 0
1 1.44548 1.41356 4.33523 -1 0 0
1 4.3231 4.31645 4.32554 -1 0 0
1 2.85932 5.7095 5.72928 -1 0 0
1 14.3297 2.87864 5.71309 -1 0 0
1 2.87543 2.85285 5.72637 -1 0 0
1 4.29715 1.41769 4.31228 -1 0 0
1 7.19237 1.47725 4.33012 -1 0 0
1 5.72053 0.0360848 5.73052 -1 0 0
1 5.73685 2.84785 5.74777 -1 0 0
1 10.0261 1.43564 4.30339 -1 0 0
1 0.0162245 5.73993 5.71871 -1 0 0
1 8.5954 2.89064 5.71274 -1 0 0
1 12.8853 1.44363 4.30727 -1 0 0
1 1.42584 4.32936 4.29628 -1 0 0
1 11.4545 2.93968 5.70416 -1 0 0
1 10.0281 7.162 1.40064 -1 0 0
1 12.8845 7.15879 1.49356 -1 0 0
1 7.2407 1.38298 7.15287 -1 0 0
1 10.0404 1.49423 7.14593 -1 0 0
1 7.15898 4.29201 7.16331 -1 0 0
1 12.9497 7.14031 7.14232 -1 0 0
1 10.0288 7.16286 7.13485 -1 0 0
1 12.9254 4.33024 7.15779 -1 0 0
1 7.16157 7.15617 7.11711 -1 0 0
1 1.45805 1.40506 7.16964 -1 0 0
1 0.0289419 0.0264232 8.59476 -1 0 0
1 1.42174 1.43202 10.0386 -1 0 0
1 2.81897 0.00505603 8.61649 -1 0 0
1 0.00163437 2.88546 8.57905 -1 0 0
1 2.86575 2.8376 8.584 -1 0 0
1 4.29686 1.45078 7.19212 -1 0 0
1 10.0402 7.16078 12.898 -1 0 0
1 4.31287 1.46805 10.028 -1 0 0
1 11.4824 5.71422 11.4271 -1 0 0
1 7.19135 1.43384 10.0598 -1 0 0
1 5.75601 2.84265 8.62561 -1 0 0
1 1.47456 7.14523 12.9277 -1 0 0
1 8.63402 0.0178185 8.57483 -1 0 0
1 10.0387 1.42163 10.0514 -1 0 0
1 8.56062 2.88793 8.62674 -1 0 0
1 12.9056 1.45733 7.19244 -1 0 0
1 12.8455 4.28126 12.8767 -1 0 0
1 12.8986 1.43027 10.0024 -1 0 0
1 11.4237 2.87744 8.60326 -1 0 0
1 1.40944 4.31177 7.17383 -1 0 0
1 1.41759 4.2923 10.0378 -1 0 0
1 0.04724 5.73043 8.6169 -1 0 0
1 2.87125 5.73453 8.53272 -1 0 0
1 4.30971 4.29262 7.17189 -1 0 0
1 7.21917 7.16507 10.0162 -1 0 0
1 4.29874 4.25861 10.0092 -1 0 0
1 7.13152 4.29975 10.0291 -1 0 0
1 5.72954 5.77141 8.60013 -1 0 0
1 10.053 4.30582 7.16832 -1 0 0
1 10.0306 4.27429 10.0466 -1 0 0
1 8.57314 5.6971 8.5815 -1 0 0
1 4.29722 7.14299 10.0352 -1 0 0
1 12.8876 4.25218 10.0484 -1 0 0
1 11.4659 5.73762 8.60467 -1 0 0
1 14.3266 0.02755 11.5076 -1 0 0
1 1.40634 1.4575 12.8962 -1 0 0
1 2.87579 0.0133944 11.4293 -1 0 0
1 0.0151848 2.83957 11.4761 -1 0 0
1 2.84287 2.83049 11.4447 -1 0 0
1 4.33056 1.44233 12.8771 -1 0 0
1 8.55155 5.73088 11.4584 -1 0 0
1 7.1563 1.43262 12.8965 -1 0 0
1 5.72695 2.88183 11.4787 -1 0 0
1 8.61747 0.0276867 11.4926 -1 0 0
1 10.0022 1.42875 12.8995 -1 0 0
1 8.57595 2.85136 11.43 -1 0 0
1 11.4726 0.0275274 11.4908 -1 0 0
1 12.8844 1.43303 12.882 -1 0 0
1 11.4177 2.86892 11.4708 -1 0 0
1 1.4397 4.30828 12.919 -1 0 0
1 14.3107 5.76123 11.4828 -1 0 0
1 2.88247 5.73613 11.4739 -1 0 0
1 4.31932 4.29599 12.8847 -1 0 0
1 7.1738 4.26614 12.9095 -1 0 0
1 5.70452 5.73586 11.4847 -1 0 0
1 10.0154 4.29274 12.8911 -1 0 0
1 1.42871 7.15581 10.0366 -1 0 0
1 4.31273 7.15081 7.17101 -1 0 0
1 0.0419752 0.0339838 14.3266 -1 0 0
1 2.85754 2.84443 14.2935 -1 0 0
1 5.7392 2.87842 14.3308 -1 0 0
1 2.86029 5.75306 14.3216 -1 0 0
1 1.41115 7.17021 1.41155 -1 0 0
1 11.5047 14.3287 5.69803 -1 0 0
1 1.45297 10.0501 1.41641 -1 0 0
1 2.8841 8.60852 0.0203528 -1 0 0
1 0.00800298 8.56914 2.86304 -1 0 0
1 2.85039 8.60765 2.86289 -1 0 0
1 4.32092 7.17999 1.44934 -1 0 0
1 7.16554 7.16691 1.46749 -1 0 0
1 4.2936 10.0589 1.39374 -1 0 0
1 5.75391 8.59333 0.0197951 -1 0 0
1 7.17609 10.0177 1.45794 -1 0 0
1 5.75495 8.64438 2.91318 -1 0 0
1 11.4804 11.4496 5.72498 -1 0 0
1 8.60818 14.3251 5.75641 -1 0 0
1 10.0119 10.049 1.40968 -1 0 0
1 8.61094 8.6221 2.86348 -1 0 0
1 12.886 12.9255 4.29768 -1 0 0
1 2.87007 14.3248 5.72377 -1 0 0
1 12.8817 10.0446 1.43415 -1 0 0
1 11.4892 8.59846 2.83168 -1 0 0
1 0.0210572 11.4773 0.0363301 -1 0 0
1 1.42655 12.8996 1.4259 -1 0 0
1 2.87364 11.4541 0.0020707 -1 0 0
1 0.0168854 11.4428 2.82724 -1 0 0
1 2.88659 11.4531 2.86447 -1 0 0
1 4.29511 12.8968 1.41371 -1 0 0
1 14.3297 14.3308 5.73796 -1 0 0
1 7.19441 12.9074 1.40611 -1 0 0
1 5.75521 11.4516 2.93394 -1 0 0
1 8.58776 14.2956 2.88701 -1 0 0
1 10.0427 12.8961 1.42535 -1 0 0
1 8.55757 11.4733 2.86208 -1 0 0
1 5.71157 14.3223 2.85015 -1 0 0
1 12.9114 12.9064 1.42155 -1 0 0
1 11.4531 11.4528 2.86357 -1 0 0
1 8.62884 11.4809 5.74967 -1 0 0
1 1.4448 10.028 4.33154 -1 0 0
1 14.3131 8.62929 5.73693 -1 0 0
1 2.85988 8.55764 5.73291 -1 0 0
1 4.27765 7.19039 4.33454 -1 0 0
1 10.0963 12.8999 4.29249 -1 0 0
1 4.32892 10.0044 4.29892 -1 0 0
1 7.11858 10.0675 4.34932 -1 0 0
1 5.72966 8.61424 5.73411 -1 0 0
1 5.7184 11.4721 5.76431 -1 0 0
1 10.0279 10.0116 4.29368 -1 0 0
1 8.58686 8.55837 5.73386 -1 0 0
1 7.16866 12.9013 4.32971 -1 0 0
1 12.9434 10.0619 4.32643 -1 0 0
1 11.4663 8.5848 5.7551 -1 0 0
1 1.44629 12.8783 4.28883 -1 0 0
1 0.0324684 11.4667 5.72713 -1 0 0
1 2.81295 11.4537 5.72816 -1 0 0
1 4.28252 12.8956 4.32963 -1 0 0
1 2.88419 14.3305 0.0524234 -1 0 0
1 14.3282 14.3047 2.84772 -1 0 0
1 2.82774 14.3165 2.83653 -1 0 0
1 1.42923 7.2009 7.1281 -1 0 0
1 1.44602 10.031 7.14773 -1 0 0
1 7.16053 10.0288 7.14343 -1 0 0
1 12.8982 10.0488 7.14856 -1 0 0
1 1.43898 12.8884 7.13539 -1 0 0
1 4.29112 12.923 7.12933 -1 0 0
1 12.9317 12.8829 7.15967 -1 0 0
1 5.70565 14.3123 11.4855 -1 0 0
1 11.459 14.276 8.56633 -1 0 0
1 12.9189 12.9285 12.9006 -1 0 0
1 0.00366583 8.61633 8.57449 -1 0 0
1 1.46078 10.0208 10.0321 -1 0 0
1 2.85575 8.60038 8.58188 -1 0 0
1 11.4584 11.4538 11.5044 -1 0 0
1 10.0064 12.9092 12.8725 -1 0 0
1 4.30283 10.0377 7.18498 -1 0 0
1 5.74532 14.3181 8.55544 -1 0 0
1 8.66954 11.4693 11.461 -1 0 0
1 7.14125 12.8753 12.8896 -1 0 0
1 4.28087 10.0339 10.0683 -1 0 0
1 5.75206 8.60127 8.60304 -1 0 0
1 7.16958 10.064 10.0199 -1 0 0
1 5.72685 11.4702 11.4877 -1 0 0
1 10.0123 9.99245 7.17405 -1 0 0
1 10.0267 7.17967 10.0325 -1 0 0
1 8.5947 8.60171 8.55731 -1 0 0
1 10.0493 10.0284 10.0626 -1 0 0
1 4.31062 12.9311 12.9048 -1 0 0
1 14.3249 11.4836 11.4554 -1 0 0
1 12.94 7.18643 10.0517 -1 0 0
1 11.4337 8.59692 8.62355 -1 0 0
1 12.8972 10.0184 10.0095 -1 0 0
1 12.9112 10.0067 12.8984 -1 0 0
1 0.0406894 11.4779 8.58588 -1 0 0
1 1.44283 12.886 10.0736 -1 0 0
1 2.84713 11.4537 8.5867 -1 0 0
1 11.4762 8.63348 11.4915 -1 0 0
1 7.14428 12.9297 7.18859 -1 0 0
1 4.33525 12.8789 9.99855 -1 0 0
1 5.71838 11.4308 8.60618 -1 0 0
1 7.09898 12.9525 10.0657 -1 0 0
1 9.98546 12.9001 7.18924 -1 0 0
1 8.61142 11.4521 8.60859 -1 0 0
1 10.0279 12.8963 10.0719 -1 0 0
1 12.9018 7.18603 12.8963 -1 0 0
1 11.43 11.4365 8.61548 -1 0 0
1 12.8699 12.947 10.0466 -1 0 0
1 2.86128 11.4596 11.4744 -1 0 0
1 0.0104844 8.63668 11.4718 -1 0 0
1 1.45361 10.0304 12.9466 -1 0 0
1 2.85352 8.57982 11.4462 -1 0 0
1 4.33658 7.17099 12.9186 -1 0 0
1 7.14797 7.20434 12.9262 -1 0 0
1 4.29977 10.0694 12.894 -1 0 0
1 5.72301 8.56098 11.4693 -1 0 0
1 7.17736 10.054 12.8823 -1 0 0
1 1.42393 12.9089 12.9138 -1 0 0
1 8.5827 8.61267 11.492 -1 0 0
1 10.0344 10.0494 12.8909 -1 0 0
1 14.3018 8.61195 14.3206 -1 0 0
1 8.59463 8.58937 14.3261 -1 0 0
1 11.4772 8.59815 14.3206 -1 0 0
1 5.71288 11.4601 14.3335 -1 0 0
1 8.55699 11.458 14.321 -1 0 0
1 11.4745 11.4927 14.3094 -1 0 0
1 8.57433 14.315 14.305 -1 0 0
ITEM: TIMESTEP
300
ITEM: NUMBER OF ATOMS
250
ITEM: BOX BOUNDS pp pp pp
0.0000000000000000e+00 1.4332500000000000e+01
0.0000000000000000e+00 1.4332500000000000e+01
0.0000000000000000e+00 1.4332500000000000e+01
ITEM: ATOMS type x y z c_outsp[1] c_outsp[2] c_outsp[3]
1 12.8887 7.14952 4.32249 -1 0 0
1 1.45782 1.36942 1.42964 -1 0 0
1 11.4798 5.68629 5.73109 -1 0 0
1 0.00480506 2.87276 0.0251784 -1 0 0
1 10.0419 7.15795 4.28495 -1 0 0
1 12.9168 4.30812 4.26388 -1 0 0
1 8.63342 5.7647 5.67105 -1 0 0
1 14.3191 2.83775 2.87816 -1 0 0
1 2.83103 2.81378 2.83431 -1 0 0
1 4.28841 1.41333 1.40704 -1 0 0
1 5.69764 0.0177958 0.0584995 -1 0 0
1 7.16155 1.41375 1.42143 -1 0 0
1 7.15164 7.16528 4.27158 -1 0 0
1 10.0139 4.27118 4.28816 -1 0 0
1 5.66895 2.86339 2.8498 -1 0 0
1 5.72865 5.71245 5.6943 -1 0 0
1 10.026 1.41734 1.42355 -1 0 0
1 8.61479 2.87158 0.0147652 -1 0 0
1 7.16336 4.27104 4.29817 -1 0 0
1 8.59451 2.85838 2.88058 -1 0 0
1 11.4662 0.00173614 0.0125852 -1 0 0
1 12.8843 1.42517 1.43628 -1 0 0
1 11.4811 2.88179 0.0123459 -1 0 0
1 11.4615 0.0376584 2.82425 -1 0 0
1 11.4617 2.89024 2.86399 -1 0 0
1 1.43342 4.30783 1.41344 -1 0 0
1 14.299 5.70368 0.0360641 -1 0 0
1 1.45734 7.16102 4.2645 -1 0 0
1 0.013161 5.69952 2.90731 -1 0 0
1 2.85554 5.76286 2.86876 -1 0 0
1 4.33185 4.31497 1.45087 -1 0 0
1 7.14383 4.27108 1.4406 -1 0 0
1 5.70826 5.71229 0.00582337 -1 0 0
1 5.7488 5.76494 2.83893 -1 0 0
1 10.043 4.26997 1.48527 -1 0 0
1 8.63594 5.70269 0.0102994 -1 0 0
1 8.59416 5.76126 2.83675 -1 0 0
1 12.8889 4.26927 1.40133 -1 0 0
1 11.4998 5.70459 0.0201187 -1 0 0
1 11.434 5.76335 2.85994 -1 0 0
1 1.44762 1.40521 4.34661 -1 0 0
1 4.32908 4.32015 4.33046 -1 0 0
1 2.85666 5.69991 5.72949 -1 0 0
1 14.3298 2.88235 5.70607 -1 0 0
1 2.87795 2.85054 5.72364 -1 0 0
1 4.29455 1.41191 4.31317 -1 0 0
1 7.19988 1.49002 4.3376 -1 0 0
1 5.71791 0.0510679 5.72828 -1 0 0
1 5.73811 2.83889 5.75625 -1 0 0
1 10.0244 1.43508 4.30519 -1 0 0
1 0.0246533 5.74314 5.71142 -1 0 0
1 8.59564 2.90292 5.71027 -1 0 0
1 12.8803 1.44844 4.30955 -1 0 0
1 1.42768 4.33423 4.29403 -1 0 0
1 11.4552 2.96487 5.69421 -1 0 0
1 10.0268 7.16288 1.38757 -1 0 0
1 12.8824 7.15316 1.51252 -1 0 0
1 7.26619 1.37018 7.14907 -1 0 0
1 10.0463 1.51798 7.13581 -1 0 0
1 7.15432 4.28974 7.15912 -1 0 0
1 12.9667 7.13056 7.13721 -1 0 0
1 10.0293 7.15734 7.12579 -1 0 0
1 12.9357 4.34148 7.15733 -1 0 0
1 7.15814 7.14913 7.09871 -1 0 0
1 1.4653 1.39764 7.1667 -1 0 0
1 0.0395032 0.0320113 8.59385 -1 0 0
1 1.41414 1.43258 10.0396 -1 0 0
1 2.80487 0.00286793 8.62489 -1 0 0
1 0.00377063 2.8918 8.57135 -1 0 0
1 2.86115 2.82965 8.57813 -1 0 0
1 4.2964 1.45504 7.20216 -1 0 0
1 10.0441 7.15566 12.8944 -1 0 0
1 4.32054 1.47601 10.0252 -1 0 0
1 11.4862 5.71103 11.4118 -1 0 0
1 7.19588 1.42725 10.0688 -1 0 0
1 5.76923 2.83117 8.63051 -1 0 0
1 1.486 7.14053 12.9376 -1 0 0
1 8.64939 0.0241278 8.5733 -1 0 0
1 10.0428 1.41458 10.0539 -1 0 0
1 8.54712 2.89536 8.63562 -1 0 0
1 12.9047 1.46809 7.20036 -1 0 0
1 12.829 4.27342 12.8662 -1 0 0
1 12.8957 1.42998 9.98976 -1 0 0
1 11.4096 2.88158 8.60432 -1 0 0
1 1.40258 4.31305 7.17352 -1 0 0
1 1.41451 4.29034 10.0422 -1 0 0
1 0.0623561 5.73124 8.625 -1 0 0
1 2.87111 5.73491 8.51018 -1 0 0
1 4.3163 4.28775 7.17484 -1 0 0
1 7.23799 7.16691 10.0093 -1 0 0
1 4.29535 4.24537 9.99841 -1 0 0
1 7.11439 4.3034 10.0296 -1 0 0
1 5.73025 5.78433 8.60107 -1 0 0
1 10.0562 4.31022 7.16995 -1 0 0
1 10.0255 4.26958 10.0514 -1 0 0
1 8.56595 5.68412 8.57328 -1 0 0
1 4.29425 7.1345 10.0337 -1 0 0
1 12.8859 4.23327 10.0525 -1 0 0
1 11.4681 5.74166 8.60824 -1 0 0
1 14.326 0.0373573 11.5191 -1 0 0
1 1.40192 1.46383 12.8967 -1 0 0
1 2.88047 0.0183112 11.4176 -1 0 0
1 0.0174019 2.8331 11.48 -1 0 0
1 2.83448 2.81964 11.4382 -1 0 0
1 4.33948 1.44512 12.87 -1 0 0
1 8.53349 5.7294 11.4581 -1 0 0
1 7.15017 1.4315 12.8969 -1 0 0
1 5.7263 2.88714 11.4821 -1 0 0
1 8.61978 0.0354424 11.5006 -1 0 0
1 9.99171 1.43065 12.9042 -1 0 0
1 8.56712 2.84854 11.4192 -1 0 0
1 11.4736 0.0377596 11.5004 -1 0 0
1 12.8768 1.43744 12.8794 -1 0 0
1 11.3996 2.86543 11.4733 -1 0 0
1 1.44004 4.3127 12.9237 -1 0 0
1 14.304 5.76869 11.4923 -1 0 0
1 2.88891 5.7344 11.475 -1 0 0
1 4.32168 4.29284 12.8802 -1 0 0
1 7.17773 4.25584 12.9136 -1 0 0
1 5.69767 5.73709 11.49 -1 0 0
1 10.0078 4.29161 12.8871 -1 0 0
1 1.42844 7.15179 10.0375 -1 0 0
1 4.31928 7.14711 7.16993 -1 0 0
1 0.0537219 0.0473176 14.3247 -1 0 0
1 2.85678 2.83722 14.2803 -1 0 0
1 5.73952 2.88078 14.3315 -1 0 0
1 2.86381 5.75772 14.322 -1 0 0
1 1.402 7.17156 1.40194 -1 0 0
1 11.5165 14.33 5.69249 -1 0 0
1 1.45975 10.0526 1.41173 -1 0 0
1 2.89318 8.60973 0.0272774 -1 0 0
1 0.0114641 8.56129 2.86261 -1 0 0
1 2.84588 8.61271 2.85926 -1 0 0
1 4.32875 7.18796 1.45813 -1 0 0
1 7.16591 7.16892 1.477 -1 0 0
1 4.29551 10.0668 1.38424 -1 0 0
1 5.76178 8.59568 0.0291118 -1 0 0
1 7.17734 10.0133 1.46576 -1 0 0
1 5.76193 8.65947 2.92742 -1 0 0
1 11.4833 11.444 5.72513 -1 0 0
1 8.61736 14.3191 5.75959 -1 0 0
1 10.0047 10.0567 1.39852 -1 0 0
1 8.61587 8.63053 2.86458 -1 0 0
1 12.8849 12.9311 4.2922 -1 0 0
1 2.87105 14.3225 5.72104 -1 0 0
1 12.8752 10.0495 1.43297 -1 0 0