LAMMPS (4 Jul 2026)
OMP_NUM_THREADS environment is not set. Defaulting to 1 thread.
  using 1 OpenMP thread(s) per MPI task
Loaded 1 plugins from D:\LAMMPS\LAMMPS\LAMMPS 64-bit 4Jul2026-MSMPI\plugins
# bcc iron in a 3d periodic box

clear
OMP_NUM_THREADS environment is not set. Defaulting to 1 thread.
  using 1 OpenMP thread(s) per MPI task
Restoring plugin: Hello world command v1.1 by Axel Kohlmeyer (akohlmey@gmail.com)
WARNING: Overriding built-in command style hello from plugin (src/PLUGIN/plugin.cpp:556)
Loaded 1 plugins from D:\LAMMPS\LAMMPS\LAMMPS 64-bit 4Jul2026-MSMPI\plugins
units 		metal
atom_style 	spin

dimension 	3
boundary 	p p p

# necessary for the serial algorithm (sametag)
atom_modify 	map array

lattice 	bcc 2.8665
Lattice spacing in x,y,z = 2.8665 2.8665 2.8665
region 		box block 0.0 5.0 0.0 5.0 0.0 5.0
create_box 	1 box
Created orthogonal box = (0 0 0) to (14.3325 14.3325 14.3325)
  1 by 2 by 2 MPI processor grid
create_atoms 	1 box
Created 250 atoms
  using lattice units in orthogonal box = (0 0 0) to (14.3325 14.3325 14.3325)
  create_atoms CPU = 0.002 seconds

# setting mass, mag. moments, and interactions for bcc iron

mass		1 55.845
set 		group all spin 2.2 -1.0 0.0 0.0
WARNING: Set attribute spin is deprecated -- use spin/atom instead (src/set.cpp:2384)
Setting atom values ...
  250 settings made for spin
velocity 	all create 100 4928459 rot yes dist gaussian

pair_style 	hybrid/overlay eam/alloy spin/exchange/biquadratic 3.5
pair_coeff 	* * eam/alloy Fe_Mishin2006.eam.alloy Fe
pair_coeff 	* * spin/exchange/biquadratic biquadratic 3.4 0.02726 0.2171 1.841 0.0 0.0 2.0 offset yes
neighbor 	0.1 bin
neigh_modify 	every 10 check yes delay 20

fix 		1 all precession/spin cubic 0.001 0.0005 1.0 0.0 0.0 0.0 1.0 0.0 0.0 0.0 1.0
fix_modify 	1 energy yes
fix 		2 all langevin/spin 0.0 0.0 21

fix 		3 all nve/spin lattice moving
timestep	0.0001

# compute and output options

compute 	out_mag    all spin
compute 	out_pe     all pe
compute 	out_ke     all ke
compute 	out_temp   all temp

variable 	magx      equal c_out_mag[1]
variable 	magy      equal c_out_mag[2]
variable 	magz      equal c_out_mag[3]
variable 	magnorm   equal c_out_mag[4]
variable 	emag      equal c_out_mag[5]
variable 	tmag      equal c_out_mag[6]

thermo_style    custom step time v_magx v_magy v_magz v_magnorm v_tmag v_emag pe etotal
thermo          50

compute 	outsp all property/atom spx spy spz sp fmx fmy fmz
dump 		1 all custom 100 dump_iron.lammpstrj type x y z c_outsp[1] c_outsp[2] c_outsp[3]

run 		1000

CITE-CITE-CITE-CITE-CITE-CITE-CITE-CITE-CITE-CITE-CITE-CITE-CITE

Your simulation uses code contributions which should be cited:

- fix nve/spin command: https://doi.org/10.1016/j.jcp.2018.06.042

@article{tranchida2018massively,
title={Massively Parallel Symplectic Algorithm for Coupled Magnetic Spin    Dynamics and Molecular Dynamics},
author={Tranchida, J and Plimpton, S J and Thibaudeau, P and Thompson, A P},
journal={Journal of Computational Physics},
volume={372},
pages={406--425},
year={2018},
publisher={Elsevier}
doi={10.1016/j.jcp.2018.06.042}
}

CITE-CITE-CITE-CITE-CITE-CITE-CITE-CITE-CITE-CITE-CITE-CITE-CITE

Neighbor list info ...
  update: every = 10 steps, delay = 20 steps, check = yes
  max neighbors/atom: 2000, page size: 100000
  master list distance cutoff = 5.773367
  ghost atom cutoff = 5.773367
  binsize = 2.8866835, bins = 5 5 5
  2 neighbor lists, perpetual/occasional/extra = 2 0 0
  (1) pair eam/alloy, perpetual, half/full from (2)
      attributes: half, newton on, cut 5.7733670002446
      pair build: halffull/newton
      stencil: none
      bin: none
  (2) pair spin/exchange/biquadratic, perpetual
      attributes: full, newton on
      pair build: full/bin/atomonly
      stencil: full/bin/3d
      bin: standard
WARNING: Dump 1 includes no atom IDs and is not sorted by ID. This may complicate post-processing tasks or visualization (src/dump.cpp:210)
Per MPI rank memory allocation (min/avg/max) = 5.639 | 5.639 | 5.639 Mbytes
   Step          Time          v_magx         v_magy         v_magz       v_magnorm        v_tmag         v_emag         PotEng         TotEng    
         0   0             -1              0              0              1              0              0             -1070          -1066.7813    
        50   0.005         -1              0              0              1              0              0             -1069.882      -1066.7813    
       100   0.01          -1              0              0              1              0              0             -1069.5481     -1066.7813    
       150   0.015         -1              0              0              1              0              0             -1069.0569     -1066.7813    
       200   0.02          -1              0              0              1              0              0             -1068.4978     -1066.7813    
       250   0.025         -1              0              0              1              0              0             -1067.9749     -1066.7813    
       300   0.03          -1              0              0              1              0              0             -1067.5833     -1066.7813    
       350   0.035         -1              0              0              1              0              0             -1067.3844     -1066.7813    
       400   0.04          -1              0              0              1              0              0             -1067.3894     -1066.7813    
       450   0.045         -1              0              0              1              0              0             -1067.5604     -1066.7813    
       500   0.05          -1              0              0              1              0              0             -1067.8269     -1066.7813    
       550   0.055         -1              0              0              1              0              0             -1068.1104     -1066.7813    
       600   0.06          -1              0              0              1              0              0             -1068.345      -1066.7813    
       650   0.065         -1              0              0              1              0              0             -1068.4903     -1066.7813    
       700   0.07          -1              0              0              1              0              0             -1068.5353     -1066.7813    
       750   0.075         -1              0              0              1              0              0             -1068.496      -1066.7813    
       800   0.08          -1              0              0              1              0              0             -1068.4071     -1066.7813    
       850   0.085         -1              0              0              1              0              0             -1068.3115     -1066.7813    
       900   0.09          -1              0              0              1              0              0             -1068.2479     -1066.7813    
       950   0.095         -1              0              0              1              0              0             -1068.2412     -1066.7813    
      1000   0.1           -1              0              0              1              0              0             -1068.2971     -1066.7813    
Loop time of 2.8869 on 4 procs for 1000 steps with 250 atoms

Performance: 2.993 ns/day, 8.019 hours/ns, 346.393 timesteps/s, 86.598 katom-step/s
72.8% CPU use with 4 MPI tasks x 1 OpenMP threads

MPI task timing breakdown:
Section |  min time  |  avg time  |  max time  |%varavg| %total
---------------------------------------------------------------
Pair    | 0.45773    | 0.46912    | 0.48304    |   1.6 | 16.25
Neigh   | 0.001384   | 0.001462   | 0.001539   |   0.1 |  0.05
Comm    | 0.19646    | 0.21184    | 0.22384    |   2.4 |  7.34
Output  | 0.004699   | 0.0068918  | 0.008795   |   1.8 |  0.24
Modify  | 2.1829     | 2.1867     | 2.1902     |   0.2 | 75.75
Other   |            | 0.01084    |            |       |  0.38

Nlocal:           62.5 ave          66 max          60 min
Histogram: 1 1 0 0 0 1 0 0 0 1
Nghost:         846.75 ave         859 max         834 min
Histogram: 1 0 0 0 1 1 0 0 0 1
Neighs:        1961.75 ave        2084 max        1869 min
Histogram: 1 1 0 0 0 0 1 0 0 1
FullNghs:       3923.5 ave        4135 max        3776 min
Histogram: 1 1 0 0 0 1 0 0 0 1

Total # of neighbors = 15694
Ave neighs/atom = 62.776
Neighbor list builds = 6
Dangerous builds = 0
# min_style 	spin
# min_modify	alpha_damp 1.0 discrete_factor 10
# minimize 	1.0e-16 1.0e-16 10000 10000
Total wall time: 0:00:03
